V -t * -v 1.0a5 -a 0
A -t * -n 1 -p 0 -o 0x7fffffff -c 30 -a 1
A -t * -h 1 -m 1073741823 -s 0
n -t * -a 0 -s 0 -S UP -v circle -c black -i black
n -t * -a 1 -s 1 -S UP -v circle -c black -i black
n -t * -a 2 -s 2 -S UP -v circle -c black -i black
n -t * -a 3 -s 3 -S UP -v circle -c black -i black
l -t * -s 0 -d 2 -S UP -r 2000000 -D 0.01 -c black
l -t * -s 1 -d 2 -S UP -r 2000000 -D 0.01 -c black -o right
l -t * -s 2 -d 3 -S UP -r 1700000 -D 0.02 -c black -o right
+ -t 0.5 -s 0 -d 2 -p tcp -e 40 -c 0 -i 0 -a 0 -x {0.0 3.0 0 ------- null}
- -t 0.5 -s 0 -d 2 -p tcp -e 40 -c 0 -i 0 -a 0 -x {0.0 3.0 0 ------- null}
h -t 0.5 -s 0 -d 2 -p tcp -e 40 -c 0 -i 0 -a 0 -x {0.0 3.0 -1 ------- null}
+ -t 0.5 -s 1 -d 2 -p cbr -e 500 -c 0 -i 1 -a 0 -x {1.0 3.1 0 ------- null}
- -t 0.5 -s 1 -d 2 -p cbr -e 500 -c 0 -i 1 -a 0 -x {1.0 3.1 0 ------- null}
h -t 0.5 -s 1 -d 2 -p cbr -e 500 -c 0 -i 1 -a 0 -x {1.0 3.1 -1 ------- null}
+ -t 0.505 -s 1 -d 2 -p cbr -e 500 -c 0 -i 2 -a 0 -x {1.0 3.1 1 ------- null}
- -t 0.505 -s 1 -d 2 -p cbr -e 500 -c 0 -i 2 -a 0 -x {1.0 3.1 1 ------- null}
h -t 0.505 -s 1 -d 2 -p cbr -e 500 -c 0 -i 2 -a 0 -x {1.0 3.1 -1 ------- null}
+ -t 0.51 -s 1 -d 2 -p cbr -e 500 -c 0 -i 3 -a 0 -x {1.0 3.1 2 ------- null}
- -t 0.51 -s 1 -d 2 -p cbr -e 500 -c 0 -i 3 -a 0 -x {1.0 3.1 2 ------- null}
h -t 0.51 -s 1 -d 2 -p cbr -e 500 -c 0 -i 3 -a 0 -x {1.0 3.1 -1 ------- null}
r -t 0.51016 -s 0 -d 2 -p tcp -e 40 -c 0 -i 0 -a 0 -x {0.0 3.0 0 ------- null}
+ -t 0.51016 -s 2 -d 3 -p tcp -e 40 -c 0 -i 0 -a 0 -x {0.0 3.0 0 ------- null}
- -t 0.51016 -s 2 -d 3 -p tcp -e 40 -c 0 -i 0 -a 0 -x {0.0 3.0 0 ------- null}
h -t 0.51016 -s 2 -d 3 -p tcp -e 40 -c 0 -i 0 -a 0 -x {0.0 3.0 -1 ------- null}
r -t 0.512 -s 1 -d 2 -p cbr -e 500 -c 0 -i 1 -a 0 -x {1.0 3.1 0 ------- null}
+ -t 0.512 -s 2 -d 3 -p cbr -e 500 -c 0 -i 1 -a 0 -x {1.0 3.1 0 ------- null}
- -t 0.512 -s 2 -d 3 -p cbr -e 500 -c 0 -i 1 -a 0 -x {1.0 3.1 0 ------- null}
h -t 0.512 -s 2 -d 3 -p cbr -e 500 -c 0 -i 1 -a 0 -x {1.0 3.1 -1 ------- null}
+ -t 0.515 -s 1 -d 2 -p cbr -e 500 -c 0 -i 4 -a 0 -x {1.0 3.1 3 ------- null}
- -t 0.515 -s 1 -d 2 -p cbr -e 500 -c 0 -i 4 -a 0 -x {1.0 3.1 3 ------- null}
h -t 0.515 -s 1 -d 2 -p cbr -e 500 -c 0 -i 4 -a 0 -x {1.0 3.1 -1 ------- null}
r -t 0.517 -s 1 -d 2 -p cbr -e 500 -c 0 -i 2 -a 0 -x {1.0 3.1 1 ------- null}
+ -t 0.517 -s 2 -d 3 -p cbr -e 500 -c 0 -i 2 -a 0 -x {1.0 3.1 1 ------- null}
- -t 0.517 -s 2 -d 3 -p cbr -e 500 -c 0 -i 2 -a 0 -x {1.0 3.1 1 ------- null}
h -t 0.517 -s 2 -d 3 -p cbr -e 500 -c 0 -i 2 -a 0 -x {1.0 3.1 -1 ------- null}
+ -t 0.52 -s 1 -d 2 -p cbr -e 500 -c 0 -i 5 -a 0 -x {1.0 3.1 4 ------- null}
- -t 0.52 -s 1 -d 2 -p cbr -e 500 -c 0 -i 5 -a 0 -x {1.0 3.1 4 ------- null}
h -t 0.52 -s 1 -d 2 -p cbr -e 500 -c 0 -i 5 -a 0 -x {1.0 3.1 -1 ------- null}
r -t 0.522 -s 1 -d 2 -p cbr -e 500 -c 0 -i 3 -a 0 -x {1.0 3.1 2 ------- null}
+ -t 0.522 -s 2 -d 3 -p cbr -e 500 -c 0 -i 3 -a 0 -x {1.0 3.1 2 ------- null}
- -t 0.522 -s 2 -d 3 -p cbr -e 500 -c 0 -i 3 -a 0 -x {1.0 3.1 2 ------- null}
h -t 0.522 -s 2 -d 3 -p cbr -e 500 -c 0 -i 3 -a 0 -x {1.0 3.1 -1 ------- null}
+ -t 0.525 -s 1 -d 2 -p cbr -e 500 -c 0 -i 6 -a 0 -x {1.0 3.1 5 ------- null}
- -t 0.525 -s 1 -d 2 -p cbr -e 500 -c 0 -i 6 -a 0 -x {1.0 3.1 5 ------- null}
h -t 0.525 -s 1 -d 2 -p cbr -e 500 -c 0 -i 6 -a 0 -x {1.0 3.1 -1 ------- null}
r -t 0.527 -s 1 -d 2 -p cbr -e 500 -c 0 -i 4 -a 0 -x {1.0 3.1 3 ------- null}
+ -t 0.527 -s 2 -d 3 -p cbr -e 500 -c 0 -i 4 -a 0 -x {1.0 3.1 3 ------- null}
- -t 0.527 -s 2 -d 3 -p cbr -e 500 -c 0 -i 4 -a 0 -x {1.0 3.1 3 ------- null}
h -t 0.527 -s 2 -d 3 -p cbr -e 500 -c 0 -i 4 -a 0 -x {1.0 3.1 -1 ------- null}
+ -t 0.53 -s 1 -d 2 -p cbr -e 500 -c 0 -i 7 -a 0 -x {1.0 3.1 6 ------- null}
- -t 0.53 -s 1 -d 2 -p cbr -e 500 -c 0 -i 7 -a 0 -x {1.0 3.1 6 ------- null}
h -t 0.53 -s 1 -d 2 -p cbr -e 500 -c 0 -i 7 -a 0 -x {1.0 3.1 -1 ------- null}
r -t 0.530348235294118 -s 2 -d 3 -p tcp -e 40 -c 0 -i 0 -a 0 -x {0.0 3.0 0 ------- null}
+ -t 0.530348235294118 -s 3 -d 2 -p ack -e 40 -c 0 -i 8 -a 0 -x {3.0 0.0 0 ------- null}
- -t 0.530348235294118 -s 3 -d 2 -p ack -e 40 -c 0 -i 8 -a 0 -x {3.0 0.0 0 ------- null}
h -t 0.530348235294118 -s 3 -d 2 -p ack -e 40 -c 0 -i 8 -a 0 -x {3.0 0.0 -1 ------- null}
r -t 0.532 -s 1 -d 2 -p cbr -e 500 -c 0 -i 5 -a 0 -x {1.0 3.1 4 ------- null}
+ -t 0.532 -s 2 -d 3 -p cbr -e 500 -c 0 -i 5 -a 0 -x {1.0 3.1 4 ------- null}
- -t 0.532 -s 2 -d 3 -p cbr -e 500 -c 0 -i 5 -a 0 -x {1.0 3.1 4 ------- null}
h -t 0.532 -s 2 -d 3 -p cbr -e 500 -c 0 -i 5 -a 0 -x {1.0 3.1 -1 ------- null}
r -t 0.534352941176471 -s 2 -d 3 -p cbr -e 500 -c 0 -i 1 -a 0 -x {1.0 3.1 0 ------- null}
+ -t 0.535 -s 1 -d 2 -p cbr -e 500 -c 0 -i 9 -a 0 -x {1.0 3.1 7 ------- null}
- -t 0.535 -s 1 -d 2 -p cbr -e 500 -c 0 -i 9 -a 0 -x {1.0 3.1 7 ------- null}
h -t 0.535 -s 1 -d 2 -p cbr -e 500 -c 0 -i 9 -a 0 -x {1.0 3.1 -1 ------- null}
r -t 0.537 -s 1 -d 2 -p cbr -e 500 -c 0 -i 6 -a 0 -x {1.0 3.1 5 ------- null}
+ -t 0.537 -s 2 -d 3 -p cbr -e 500 -c 0 -i 6 -a 0 -x {1.0 3.1 5 ------- null}
- -t 0.537 -s 2 -d 3 -p cbr -e 500 -c 0 -i 6 -a 0 -x {1.0 3.1 5 ------- null}
h -t 0.537 -s 2 -d 3 -p cbr -e 500 -c 0 -i 6 -a 0 -x {1.0 3.1 -1 ------- null}
r -t 0.539352941176471 -s 2 -d 3 -p cbr -e 500 -c 0 -i 2 -a 0 -x {1.0 3.1 1 ------- null}
+ -t 0.54 -s 1 -d 2 -p cbr -e 500 -c 0 -i 10 -a 0 -x {1.0 3.1 8 ------- null}
- -t 0.54 -s 1 -d 2 -p cbr -e 500 -c 0 -i 10 -a 0 -x {1.0 3.1 8 ------- null}
h -t 0.54 -s 1 -d 2 -p cbr -e 500 -c 0 -i 10 -a 0 -x {1.0 3.1 -1 ------- null}
r -t 0.542 -s 1 -d 2 -p cbr -e 500 -c 0 -i 7 -a 0 -x {1.0 3.1 6 ------- null}
+ -t 0.542 -s 2 -d 3 -p cbr -e 500 -c 0 -i 7 -a 0 -x {1.0 3.1 6 ------- null}
- -t 0.542 -s 2 -d 3 -p cbr -e 500 -c 0 -i 7 -a 0 -x {1.0 3.1 6 ------- null}
h -t 0.542 -s 2 -d 3 -p cbr -e 500 -c 0 -i 7 -a 0 -x {1.0 3.1 -1 ------- null}
r -t 0.544352941176471 -s 2 -d 3 -p cbr -e 500 -c 0 -i 3 -a 0 -x {1.0 3.1 2 ------- null}
+ -t 0.545 -s 1 -d 2 -p cbr -e 500 -c 0 -i 11 -a 0 -x {1.0 3.1 9 ------- null}
- -t 0.545 -s 1 -d 2 -p cbr -e 500 -c 0 -i 11 -a 0 -x {1.0 3.1 9 ------- null}
h -t 0.545 -s 1 -d 2 -p cbr -e 500 -c 0 -i 11 -a 0 -x {1.0 3.1 -1 ------- null}
r -t 0.547 -s 1 -d 2 -p cbr -e 500 -c 0 -i 9 -a 0 -x {1.0 3.1 7 ------- null}
+ -t 0.547 -s 2 -d 3 -p cbr -e 500 -c 0 -i 9 -a 0 -x {1.0 3.1 7 ------- null}
- -t 0.547 -s 2 -d 3 -p cbr -e 500 -c 0 -i 9 -a 0 -x {1.0 3.1 7 ------- null}
h -t 0.547 -s 2 -d 3 -p cbr -e 500 -c 0 -i 9 -a 0 -x {1.0 3.1 -1 ------- null}
r -t 0.549352941176471 -s 2 -d 3 -p cbr -e 500 -c 0 -i 4 -a 0 -x {1.0 3.1 3 ------- null}
+ -t 0.55 -s 1 -d 2 -p cbr -e 500 -c 0 -i 12 -a 0 -x {1.0 3.1 10 ------- null}
- -t 0.55 -s 1 -d 2 -p cbr -e 500 -c 0 -i 12 -a 0 -x {1.0 3.1 10 ------- null}
h -t 0.55 -s 1 -d 2 -p cbr -e 500 -c 0 -i 12 -a 0 -x {1.0 3.1 -1 ------- null}
r -t 0.550536470588235 -s 3 -d 2 -p ack -e 40 -c 0 -i 8 -a 0 -x {3.0 0.0 0 ------- null}
+ -t 0.550536470588235 -s 2 -d 0 -p ack -e 40 -c 0 -i 8 -a 0 -x {3.0 0.0 0 ------- null}
- -t 0.550536470588235 -s 2 -d 0 -p ack -e 40 -c 0 -i 8 -a 0 -x {3.0 0.0 0 ------- null}
h -t 0.550536470588235 -s 2 -d 0 -p ack -e 40 -c 0 -i 8 -a 0 -x {3.0 0.0 -1 ------- null}
r -t 0.552 -s 1 -d 2 -p cbr -e 500 -c 0 -i 10 -a 0 -x {1.0 3.1 8 ------- null}
+ -t 0.552 -s 2 -d 3 -p cbr -e 500 -c 0 -i 10 -a 0 -x {1.0 3.1 8 ------- null}
- -t 0.552 -s 2 -d 3 -p cbr -e 500 -c 0 -i 10 -a 0 -x {1.0 3.1 8 ------- null}
h -t 0.552 -s 2 -d 3 -p cbr -e 500 -c 0 -i 10 -a 0 -x {1.0 3.1 -1 ------- null}
r -t 0.554352941176471 -s 2 -d 3 -p cbr -e 500 -c 0 -i 5 -a 0 -x {1.0 3.1 4 ------- null}
+ -t 0.555 -s 1 -d 2 -p cbr -e 500 -c 0 -i 13 -a 0 -x {1.0 3.1 11 ------- null}
- -t 0.555 -s 1 -d 2 -p cbr -e 500 -c 0 -i 13 -a 0 -x {1.0 3.1 11 ------- null}
h -t 0.555 -s 1 -d 2 -p cbr -e 500 -c 0 -i 13 -a 0 -x {1.0 3.1 -1 ------- null}
r -t 0.557 -s 1 -d 2 -p cbr -e 500 -c 0 -i 11 -a 0 -x {1.0 3.1 9 ------- null}
+ -t 0.557 -s 2 -d 3 -p cbr -e 500 -c 0 -i 11 -a 0 -x {1.0 3.1 9 ------- null}
- -t 0.557 -s 2 -d 3 -p cbr -e 500 -c 0 -i 11 -a 0 -x {1.0 3.1 9 ------- null}
h -t 0.557 -s 2 -d 3 -p cbr -e 500 -c 0 -i 11 -a 0 -x {1.0 3.1 -1 ------- null}
r -t 0.559352941176471 -s 2 -d 3 -p cbr -e 500 -c 0 -i 6 -a 0 -x {1.0 3.1 5 ------- null}
+ -t 0.56 -s 1 -d 2 -p cbr -e 500 -c 0 -i 14 -a 0 -x {1.0 3.1 12 ------- null}
- -t 0.56 -s 1 -d 2 -p cbr -e 500 -c 0 -i 14 -a 0 -x {1.0 3.1 12 ------- null}
h -t 0.56 -s 1 -d 2 -p cbr -e 500 -c 0 -i 14 -a 0 -x {1.0 3.1 -1 ------- null}
r -t 0.560696470588235 -s 2 -d 0 -p ack -e 40 -c 0 -i 8 -a 0 -x {3.0 0.0 0 ------- null}
+ -t 0.560696470588235 -s 0 -d 2 -p tcp -e 1040 -c 0 -i 15 -a 0 -x {0.0 3.0 1 ------- null}
- -t 0.560696470588235 -s 0 -d 2 -p tcp -e 1040 -c 0 -i 15 -a 0 -x {0.0 3.0 1 ------- null}
h -t 0.560696470588235 -s 0 -d 2 -p tcp -e 1040 -c 0 -i 15 -a 0 -x {0.0 3.0 -1 ------- null}
+ -t 0.560696470588235 -s 0 -d 2 -p tcp -e 1040 -c 0 -i 16 -a 0 -x {0.0 3.0 2 ------- null}
r -t 0.562 -s 1 -d 2 -p cbr -e 500 -c 0 -i 12 -a 0 -x {1.0 3.1 10 ------- null}
+ -t 0.562 -s 2 -d 3 -p cbr -e 500 -c 0 -i 12 -a 0 -x {1.0 3.1 10 ------- null}
- -t 0.562 -s 2 -d 3 -p cbr -e 500 -c 0 -i 12 -a 0 -x {1.0 3.1 10 ------- null}
h -t 0.562 -s 2 -d 3 -p cbr -e 500 -c 0 -i 12 -a 0 -x {1.0 3.1 -1 ------- null}
r -t 0.564352941176471 -s 2 -d 3 -p cbr -e 500 -c 0 -i 7 -a 0 -x {1.0 3.1 6 ------- null}
- -t 0.564856470588235 -s 0 -d 2 -p tcp -e 1040 -c 0 -i 16 -a 0 -x {0.0 3.0 2 ------- null}
h -t 0.564856470588235 -s 0 -d 2 -p tcp -e 1040 -c 0 -i 16 -a 0 -x {0.0 3.0 -1 ------- null}
+ -t 0.565 -s 1 -d 2 -p cbr -e 500 -c 0 -i 17 -a 0 -x {1.0 3.1 13 ------- null}
- -t 0.565 -s 1 -d 2 -p cbr -e 500 -c 0 -i 17 -a 0 -x {1.0 3.1 13 ------- null}
h -t 0.565 -s 1 -d 2 -p cbr -e 500 -c 0 -i 17 -a 0 -x {1.0 3.1 -1 ------- null}
r -t 0.567 -s 1 -d 2 -p cbr -e 500 -c 0 -i 13 -a 0 -x {1.0 3.1 11 ------- null}
+ -t 0.567 -s 2 -d 3 -p cbr -e 500 -c 0 -i 13 -a 0 -x {1.0 3.1 11 ------- null}
- -t 0.567 -s 2 -d 3 -p cbr -e 500 -c 0 -i 13 -a 0 -x {1.0 3.1 11 ------- null}
h -t 0.567 -s 2 -d 3 -p cbr -e 500 -c 0 -i 13 -a 0 -x {1.0 3.1 -1 ------- null}
r -t 0.569352941176471 -s 2 -d 3 -p cbr -e 500 -c 0 -i 9 -a 0 -x {1.0 3.1 7 ------- null}
+ -t 0.57 -s 1 -d 2 -p cbr -e 500 -c 0 -i 18 -a 0 -x {1.0 3.1 14 ------- null}
- -t 0.57 -s 1 -d 2 -p cbr -e 500 -c 0 -i 18 -a 0 -x {1.0 3.1 14 ------- null}
h -t 0.57 -s 1 -d 2 -p cbr -e 500 -c 0 -i 18 -a 0 -x {1.0 3.1 -1 ------- null}
r -t 0.572 -s 1 -d 2 -p cbr -e 500 -c 0 -i 14 -a 0 -x {1.0 3.1 12 ------- null}
+ -t 0.572 -s 2 -d 3 -p cbr -e 500 -c 0 -i 14 -a 0 -x {1.0 3.1 12 ------- null}
- -t 0.572 -s 2 -d 3 -p cbr -e 500 -c 0 -i 14 -a 0 -x {1.0 3.1 12 ------- null}
h -t 0.572 -s 2 -d 3 -p cbr -e 500 -c 0 -i 14 -a 0 -x {1.0 3.1 -1 ------- null}
r -t 0.574352941176471 -s 2 -d 3 -p cbr -e 500 -c 0 -i 10 -a 0 -x {1.0 3.1 8 ------- null}
r -t 0.574856470588235 -s 0 -d 2 -p tcp -e 1040 -c 0 -i 15 -a 0 -x {0.0 3.0 1 ------- null}
+ -t 0.574856470588235 -s 2 -d 3 -p tcp -e 1040 -c 0 -i 15 -a 0 -x {0.0 3.0 1 ------- null}
- -t 0.574856470588235 -s 2 -d 3 -p tcp -e 1040 -c 0 -i 15 -a 0 -x {0.0 3.0 1 ------- null}
h -t 0.574856470588235 -s 2 -d 3 -p tcp -e 1040 -c 0 -i 15 -a 0 -x {0.0 3.0 -1 ------- null}
+ -t 0.575 -s 1 -d 2 -p cbr -e 500 -c 0 -i 19 -a 0 -x {1.0 3.1 15 ------- null}
- -t 0.575 -s 1 -d 2 -p cbr -e 500 -c 0 -i 19 -a 0 -x {1.0 3.1 15 ------- null}
h -t 0.575 -s 1 -d 2 -p cbr -e 500 -c 0 -i 19 -a 0 -x {1.0 3.1 -1 ------- null}
r -t 0.577 -s 1 -d 2 -p cbr -e 500 -c 0 -i 17 -a 0 -x {1.0 3.1 13 ------- null}
+ -t 0.577 -s 2 -d 3 -p cbr -e 500 -c 0 -i 17 -a 0 -x {1.0 3.1 13 ------- null}
r -t 0.579016470588235 -s 0 -d 2 -p tcp -e 1040 -c 0 -i 16 -a 0 -x {0.0 3.0 2 ------- null}
+ -t 0.579016470588235 -s 2 -d 3 -p tcp -e 1040 -c 0 -i 16 -a 0 -x {0.0 3.0 2 ------- null}
r -t 0.579352941176471 -s 2 -d 3 -p cbr -e 500 -c 0 -i 11 -a 0 -x {1.0 3.1 9 ------- null}
- -t 0.579750588235294 -s 2 -d 3 -p cbr -e 500 -c 0 -i 17 -a 0 -x {1.0 3.1 13 ------- null}
h -t 0.579750588235294 -s 2 -d 3 -p cbr -e 500 -c 0 -i 17 -a 0 -x {1.0 3.1 -1 ------- null}
+ -t 0.58 -s 1 -d 2 -p cbr -e 500 -c 0 -i 20 -a 0 -x {1.0 3.1 16 ------- null}
- -t 0.58 -s 1 -d 2 -p cbr -e 500 -c 0 -i 20 -a 0 -x {1.0 3.1 16 ------- null}
h -t 0.58 -s 1 -d 2 -p cbr -e 500 -c 0 -i 20 -a 0 -x {1.0 3.1 -1 ------- null}
r -t 0.582 -s 1 -d 2 -p cbr -e 500 -c 0 -i 18 -a 0 -x {1.0 3.1 14 ------- null}
+ -t 0.582 -s 2 -d 3 -p cbr -e 500 -c 0 -i 18 -a 0 -x {1.0 3.1 14 ------- null}
- -t 0.582103529411764 -s 2 -d 3 -p tcp -e 1040 -c 0 -i 16 -a 0 -x {0.0 3.0 2 ------- null}
h -t 0.582103529411764 -s 2 -d 3 -p tcp -e 1040 -c 0 -i 16 -a 0 -x {0.0 3.0 -1 ------- null}
r -t 0.584352941176471 -s 2 -d 3 -p cbr -e 500 -c 0 -i 12 -a 0 -x {1.0 3.1 10 ------- null}
+ -t 0.585 -s 1 -d 2 -p cbr -e 500 -c 0 -i 21 -a 0 -x {1.0 3.1 17 ------- null}
- -t 0.585 -s 1 -d 2 -p cbr -e 500 -c 0 -i 21 -a 0 -x {1.0 3.1 17 ------- null}
h -t 0.585 -s 1 -d 2 -p cbr -e 500 -c 0 -i 21 -a 0 -x {1.0 3.1 -1 ------- null}
- -t 0.586997647058823 -s 2 -d 3 -p cbr -e 500 -c 0 -i 18 -a 0 -x {1.0 3.1 14 ------- null}
h -t 0.586997647058823 -s 2 -d 3 -p cbr -e 500 -c 0 -i 18 -a 0 -x {1.0 3.1 -1 ------- null}
r -t 0.587 -s 1 -d 2 -p cbr -e 500 -c 0 -i 19 -a 0 -x {1.0 3.1 15 ------- null}
+ -t 0.587 -s 2 -d 3 -p cbr -e 500 -c 0 -i 19 -a 0 -x {1.0 3.1 15 ------- null}
- -t 0.589350588235294 -s 2 -d 3 -p cbr -e 500 -c 0 -i 19 -a 0 -x {1.0 3.1 15 ------- null}
h -t 0.589350588235294 -s 2 -d 3 -p cbr -e 500 -c 0 -i 19 -a 0 -x {1.0 3.1 -1 ------- null}
r -t 0.589352941176471 -s 2 -d 3 -p cbr -e 500 -c 0 -i 13 -a 0 -x {1.0 3.1 11 ------- null}
+ -t 0.59 -s 1 -d 2 -p cbr -e 500 -c 0 -i 22 -a 0 -x {1.0 3.1 18 ------- null}
- -t 0.59 -s 1 -d 2 -p cbr -e 500 -c 0 -i 22 -a 0 -x {1.0 3.1 18 ------- null}
h -t 0.59 -s 1 -d 2 -p cbr -e 500 -c 0 -i 22 -a 0 -x {1.0 3.1 -1 ------- null}
r -t 0.592 -s 1 -d 2 -p cbr -e 500 -c 0 -i 20 -a 0 -x {1.0 3.1 16 ------- null}
+ -t 0.592 -s 2 -d 3 -p cbr -e 500 -c 0 -i 20 -a 0 -x {1.0 3.1 16 ------- null}
- -t 0.592 -s 2 -d 3 -p cbr -e 500 -c 0 -i 20 -a 0 -x {1.0 3.1 16 ------- null}
h -t 0.592 -s 2 -d 3 -p cbr -e 500 -c 0 -i 20 -a 0 -x {1.0 3.1 -1 ------- null}
r -t 0.594352941176471 -s 2 -d 3 -p cbr -e 500 -c 0 -i 14 -a 0 -x {1.0 3.1 12 ------- null}
+ -t 0.595 -s 1 -d 2 -p cbr -e 500 -c 0 -i 23 -a 0 -x {1.0 3.1 19 ------- null}
- -t 0.595 -s 1 -d 2 -p cbr -e 500 -c 0 -i 23 -a 0 -x {1.0 3.1 19 ------- null}
h -t 0.595 -s 1 -d 2 -p cbr -e 500 -c 0 -i 23 -a 0 -x {1.0 3.1 -1 ------- null}
r -t 0.597 -s 1 -d 2 -p cbr -e 500 -c 0 -i 21 -a 0 -x {1.0 3.1 17 ------- null}
+ -t 0.597 -s 2 -d 3 -p cbr -e 500 -c 0 -i 21 -a 0 -x {1.0 3.1 17 ------- null}
- -t 0.597 -s 2 -d 3 -p cbr -e 500 -c 0 -i 21 -a 0 -x {1.0 3.1 17 ------- null}
h -t 0.597 -s 2 -d 3 -p cbr -e 500 -c 0 -i 21 -a 0 -x {1.0 3.1 -1 ------- null}
r -t 0.599750588235294 -s 2 -d 3 -p tcp -e 1040 -c 0 -i 15 -a 0 -x {0.0 3.0 1 ------- null}
+ -t 0.599750588235294 -s 3 -d 2 -p ack -e 40 -c 0 -i 24 -a 0 -x {3.0 0.0 1 ------- null}
- -t 0.599750588235294 -s 3 -d 2 -p ack -e 40 -c 0 -i 24 -a 0 -x {3.0 0.0 1 ------- null}
h -t 0.599750588235294 -s 3 -d 2 -p ack -e 40 -c 0 -i 24 -a 0 -x {3.0 0.0 -1 ------- null}
+ -t 0.6 -s 1 -d 2 -p cbr -e 500 -c 0 -i 25 -a 0 -x {1.0 3.1 20 ------- null}
- -t 0.6 -s 1 -d 2 -p cbr -e 500 -c 0 -i 25 -a 0 -x {1.0 3.1 20 ------- null}
h -t 0.6 -s 1 -d 2 -p cbr -e 500 -c 0 -i 25 -a 0 -x {1.0 3.1 -1 ------- null}
r -t 0.602 -s 1 -d 2 -p cbr -e 500 -c 0 -i 22 -a 0 -x {1.0 3.1 18 ------- null}
+ -t 0.602 -s 2 -d 3 -p cbr -e 500 -c 0 -i 22 -a 0 -x {1.0 3.1 18 ------- null}
- -t 0.602 -s 2 -d 3 -p cbr -e 500 -c 0 -i 22 -a 0 -x {1.0 3.1 18 ------- null}
h -t 0.602 -s 2 -d 3 -p cbr -e 500 -c 0 -i 22 -a 0 -x {1.0 3.1 -1 ------- null}
r -t 0.602103529411764 -s 2 -d 3 -p cbr -e 500 -c 0 -i 17 -a 0 -x {1.0 3.1 13 ------- null}
+ -t 0.605 -s 1 -d 2 -p cbr -e 500 -c 0 -i 26 -a 0 -x {1.0 3.1 21 ------- null}
- -t 0.605 -s 1 -d 2 -p cbr -e 500 -c 0 -i 26 -a 0 -x {1.0 3.1 21 ------- null}
h -t 0.605 -s 1 -d 2 -p cbr -e 500 -c 0 -i 26 -a 0 -x {1.0 3.1 -1 ------- null}
r -t 0.606997647058823 -s 2 -d 3 -p tcp -e 1040 -c 0 -i 16 -a 0 -x {0.0 3.0 2 ------- null}
+ -t 0.606997647058823 -s 3 -d 2 -p ack -e 40 -c 0 -i 27 -a 0 -x {3.0 0.0 2 ------- null}
- -t 0.606997647058823 -s 3 -d 2 -p ack -e 40 -c 0 -i 27 -a 0 -x {3.0 0.0 2 ------- null}
h -t 0.606997647058823 -s 3 -d 2 -p ack -e 40 -c 0 -i 27 -a 0 -x {3.0 0.0 -1 ------- null}
r -t 0.607 -s 1 -d 2 -p cbr -e 500 -c 0 -i 23 -a 0 -x {1.0 3.1 19 ------- null}
+ -t 0.607 -s 2 -d 3 -p cbr -e 500 -c 0 -i 23 -a 0 -x {1.0 3.1 19 ------- null}
- -t 0.607 -s 2 -d 3 -p cbr -e 500 -c 0 -i 23 -a 0 -x {1.0 3.1 19 ------- null}
h -t 0.607 -s 2 -d 3 -p cbr -e 500 -c 0 -i 23 -a 0 -x {1.0 3.1 -1 ------- null}
r -t 0.609350588235294 -s 2 -d 3 -p cbr -e 500 -c 0 -i 18 -a 0 -x {1.0 3.1 14 ------- null}
+ -t 0.61 -s 1 -d 2 -p cbr -e 500 -c 0 -i 28 -a 0 -x {1.0 3.1 22 ------- null}
- -t 0.61 -s 1 -d 2 -p cbr -e 500 -c 0 -i 28 -a 0 -x {1.0 3.1 22 ------- null}
h -t 0.61 -s 1 -d 2 -p cbr -e 500 -c 0 -i 28 -a 0 -x {1.0 3.1 -1 ------- null}
r -t 0.611703529411764 -s 2 -d 3 -p cbr -e 500 -c 0 -i 19 -a 0 -x {1.0 3.1 15 ------- null}
r -t 0.612 -s 1 -d 2 -p cbr -e 500 -c 0 -i 25 -a 0 -x {1.0 3.1 20 ------- null}
+ -t 0.612 -s 2 -d 3 -p cbr -e 500 -c 0 -i 25 -a 0 -x {1.0 3.1 20 ------- null}
- -t 0.612 -s 2 -d 3 -p cbr -e 500 -c 0 -i 25 -a 0 -x {1.0 3.1 20 ------- null}
h -t 0.612 -s 2 -d 3 -p cbr -e 500 -c 0 -i 25 -a 0 -x {1.0 3.1 -1 ------- null}
r -t 0.614352941176471 -s 2 -d 3 -p cbr -e 500 -c 0 -i 20 -a 0 -x {1.0 3.1 16 ------- null}
+ -t 0.615 -s 1 -d 2 -p cbr -e 500 -c 0 -i 29 -a 0 -x {1.0 3.1 23 ------- null}
- -t 0.615 -s 1 -d 2 -p cbr -e 500 -c 0 -i 29 -a 0 -x {1.0 3.1 23 ------- null}
h -t 0.615 -s 1 -d 2 -p cbr -e 500 -c 0 -i 29 -a 0 -x {1.0 3.1 -1 ------- null}
r -t 0.617 -s 1 -d 2 -p cbr -e 500 -c 0 -i 26 -a 0 -x {1.0 3.1 21 ------- null}
+ -t 0.617 -s 2 -d 3 -p cbr -e 500 -c 0 -i 26 -a 0 -x {1.0 3.1 21 ------- null}
- -t 0.617 -s 2 -d 3 -p cbr -e 500 -c 0 -i 26 -a 0 -x {1.0 3.1 21 ------- null}
h -t 0.617 -s 2 -d 3 -p cbr -e 500 -c 0 -i 26 -a 0 -x {1.0 3.1 -1 ------- null}
r -t 0.619352941176471 -s 2 -d 3 -p cbr -e 500 -c 0 -i 21 -a 0 -x {1.0 3.1 17 ------- null}
r -t 0.619938823529412 -s 3 -d 2 -p ack -e 40 -c 0 -i 24 -a 0 -x {3.0 0.0 1 ------- null}
+ -t 0.619938823529412 -s 2 -d 0 -p ack -e 40 -c 0 -i 24 -a 0 -x {3.0 0.0 1 ------- null}
- -t 0.619938823529412 -s 2 -d 0 -p ack -e 40 -c 0 -i 24 -a 0 -x {3.0 0.0 1 ------- null}
h -t 0.619938823529412 -s 2 -d 0 -p ack -e 40 -c 0 -i 24 -a 0 -x {3.0 0.0 -1 ------- null}
+ -t 0.62 -s 1 -d 2 -p cbr -e 500 -c 0 -i 30 -a 0 -x {1.0 3.1 24 ------- null}
- -t 0.62 -s 1 -d 2 -p cbr -e 500 -c 0 -i 30 -a 0 -x {1.0 3.1 24 ------- null}
h -t 0.62 -s 1 -d 2 -p cbr -e 500 -c 0 -i 30 -a 0 -x {1.0 3.1 -1 ------- null}
r -t 0.622 -s 1 -d 2 -p cbr -e 500 -c 0 -i 28 -a 0 -x {1.0 3.1 22 ------- null}
+ -t 0.622 -s 2 -d 3 -p cbr -e 500 -c 0 -i 28 -a 0 -x {1.0 3.1 22 ------- null}
- -t 0.622 -s 2 -d 3 -p cbr -e 500 -c 0 -i 28 -a 0 -x {1.0 3.1 22 ------- null}
h -t 0.622 -s 2 -d 3 -p cbr -e 500 -c 0 -i 28 -a 0 -x {1.0 3.1 -1 ------- null}
r -t 0.624352941176471 -s 2 -d 3 -p cbr -e 500 -c 0 -i 22 -a 0 -x {1.0 3.1 18 ------- null}
+ -t 0.625 -s 1 -d 2 -p cbr -e 500 -c 0 -i 31 -a 0 -x {1.0 3.1 25 ------- null}
- -t 0.625 -s 1 -d 2 -p cbr -e 500 -c 0 -i 31 -a 0 -x {1.0 3.1 25 ------- null}
h -t 0.625 -s 1 -d 2 -p cbr -e 500 -c 0 -i 31 -a 0 -x {1.0 3.1 -1 ------- null}
r -t 0.627 -s 1 -d 2 -p cbr -e 500 -c 0 -i 29 -a 0 -x {1.0 3.1 23 ------- null}
+ -t 0.627 -s 2 -d 3 -p cbr -e 500 -c 0 -i 29 -a 0 -x {1.0 3.1 23 ------- null}
- -t 0.627 -s 2 -d 3 -p cbr -e 500 -c 0 -i 29 -a 0 -x {1.0 3.1 23 ------- null}
h -t 0.627 -s 2 -d 3 -p cbr -e 500 -c 0 -i 29 -a 0 -x {1.0 3.1 -1 ------- null}
r -t 0.627185882352941 -s 3 -d 2 -p ack -e 40 -c 0 -i 27 -a 0 -x {3.0 0.0 2 ------- null}
+ -t 0.627185882352941 -s 2 -d 0 -p ack -e 40 -c 0 -i 27 -a 0 -x {3.0 0.0 2 ------- null}
- -t 0.627185882352941 -s 2 -d 0 -p ack -e 40 -c 0 -i 27 -a 0 -x {3.0 0.0 2 ------- null}
h -t 0.627185882352941 -s 2 -d 0 -p ack -e 40 -c 0 -i 27 -a 0 -x {3.0 0.0 -1 ------- null}
r -t 0.629352941176471 -s 2 -d 3 -p cbr -e 500 -c 0 -i 23 -a 0 -x {1.0 3.1 19 ------- null}
+ -t 0.63 -s 1 -d 2 -p cbr -e 500 -c 0 -i 32 -a 0 -x {1.0 3.1 26 ------- null}
- -t 0.63 -s 1 -d 2 -p cbr -e 500 -c 0 -i 32 -a 0 -x {1.0 3.1 26 ------- null}
h -t 0.63 -s 1 -d 2 -p cbr -e 500 -c 0 -i 32 -a 0 -x {1.0 3.1 -1 ------- null}
r -t 0.630098823529411 -s 2 -d 0 -p ack -e 40 -c 0 -i 24 -a 0 -x {3.0 0.0 1 ------- null}
+ -t 0.630098823529411 -s 0 -d 2 -p tcp -e 1040 -c 0 -i 33 -a 0 -x {0.0 3.0 3 ------- null}
- -t 0.630098823529411 -s 0 -d 2 -p tcp -e 1040 -c 0 -i 33 -a 0 -x {0.0 3.0 3 ------- null}
h -t 0.630098823529411 -s 0 -d 2 -p tcp -e 1040 -c 0 -i 33 -a 0 -x {0.0 3.0 -1 ------- null}
+ -t 0.630098823529411 -s 0 -d 2 -p tcp -e 1040 -c 0 -i 34 -a 0 -x {0.0 3.0 4 ------- null}
r -t 0.632 -s 1 -d 2 -p cbr -e 500 -c 0 -i 30 -a 0 -x {1.0 3.1 24 ------- null}
+ -t 0.632 -s 2 -d 3 -p cbr -e 500 -c 0 -i 30 -a 0 -x {1.0 3.1 24 ------- null}
- -t 0.632 -s 2 -d 3 -p cbr -e 500 -c 0 -i 30 -a 0 -x {1.0 3.1 24 ------- null}
h -t 0.632 -s 2 -d 3 -p cbr -e 500 -c 0 -i 30 -a 0 -x {1.0 3.1 -1 ------- null}
- -t 0.634258823529412 -s 0 -d 2 -p tcp -e 1040 -c 0 -i 34 -a 0 -x {0.0 3.0 4 ------- null}
h -t 0.634258823529412 -s 0 -d 2 -p tcp -e 1040 -c 0 -i 34 -a 0 -x {0.0 3.0 -1 ------- null}
r -t 0.634352941176471 -s 2 -d 3 -p cbr -e 500 -c 0 -i 25 -a 0 -x {1.0 3.1 20 ------- null}
+ -t 0.635 -s 1 -d 2 -p cbr -e 500 -c 0 -i 35 -a 0 -x {1.0 3.1 27 ------- null}
- -t 0.635 -s 1 -d 2 -p cbr -e 500 -c 0 -i 35 -a 0 -x {1.0 3.1 27 ------- null}
h -t 0.635 -s 1 -d 2 -p cbr -e 500 -c 0 -i 35 -a 0 -x {1.0 3.1 -1 ------- null}
r -t 0.637 -s 1 -d 2 -p cbr -e 500 -c 0 -i 31 -a 0 -x {1.0 3.1 25 ------- null}
+ -t 0.637 -s 2 -d 3 -p cbr -e 500 -c 0 -i 31 -a 0 -x {1.0 3.1 25 ------- null}
- -t 0.637 -s 2 -d 3 -p cbr -e 500 -c 0 -i 31 -a 0 -x {1.0 3.1 25 ------- null}
h -t 0.637 -s 2 -d 3 -p cbr -e 500 -c 0 -i 31 -a 0 -x {1.0 3.1 -1 ------- null}
r -t 0.637345882352941 -s 2 -d 0 -p ack -e 40 -c 0 -i 27 -a 0 -x {3.0 0.0 2 ------- null}
+ -t 0.637345882352941 -s 0 -d 2 -p tcp -e 1040 -c 0 -i 36 -a 0 -x {0.0 3.0 5 ------- null}
+ -t 0.637345882352941 -s 0 -d 2 -p tcp -e 1040 -c 0 -i 37 -a 0 -x {0.0 3.0 6 ------- null}
- -t 0.638418823529412 -s 0 -d 2 -p tcp -e 1040 -c 0 -i 36 -a 0 -x {0.0 3.0 5 ------- null}
h -t 0.638418823529412 -s 0 -d 2 -p tcp -e 1040 -c 0 -i 36 -a 0 -x {0.0 3.0 -1 ------- null}
r -t 0.639352941176471 -s 2 -d 3 -p cbr -e 500 -c 0 -i 26 -a 0 -x {1.0 3.1 21 ------- null}
+ -t 0.64 -s 1 -d 2 -p cbr -e 500 -c 0 -i 38 -a 0 -x {1.0 3.1 28 ------- null}
- -t 0.64 -s 1 -d 2 -p cbr -e 500 -c 0 -i 38 -a 0 -x {1.0 3.1 28 ------- null}
h -t 0.64 -s 1 -d 2 -p cbr -e 500 -c 0 -i 38 -a 0 -x {1.0 3.1 -1 ------- null}
r -t 0.642 -s 1 -d 2 -p cbr -e 500 -c 0 -i 32 -a 0 -x {1.0 3.1 26 ------- null}
+ -t 0.642 -s 2 -d 3 -p cbr -e 500 -c 0 -i 32 -a 0 -x {1.0 3.1 26 ------- null}
- -t 0.642 -s 2 -d 3 -p cbr -e 500 -c 0 -i 32 -a 0 -x {1.0 3.1 26 ------- null}
h -t 0.642 -s 2 -d 3 -p cbr -e 500 -c 0 -i 32 -a 0 -x {1.0 3.1 -1 ------- null}
- -t 0.642578823529412 -s 0 -d 2 -p tcp -e 1040 -c 0 -i 37 -a 0 -x {0.0 3.0 6 ------- null}
h -t 0.642578823529412 -s 0 -d 2 -p tcp -e 1040 -c 0 -i 37 -a 0 -x {0.0 3.0 -1 ------- null}
r -t 0.644258823529411 -s 0 -d 2 -p tcp -e 1040 -c 0 -i 33 -a 0 -x {0.0 3.0 3 ------- null}
+ -t 0.644258823529411 -s 2 -d 3 -p tcp -e 1040 -c 0 -i 33 -a 0 -x {0.0 3.0 3 ------- null}
r -t 0.644352941176471 -s 2 -d 3 -p cbr -e 500 -c 0 -i 28 -a 0 -x {1.0 3.1 22 ------- null}
- -t 0.644352941176471 -s 2 -d 3 -p tcp -e 1040 -c 0 -i 33 -a 0 -x {0.0 3.0 3 ------- null}
h -t 0.644352941176471 -s 2 -d 3 -p tcp -e 1040 -c 0 -i 33 -a 0 -x {0.0 3.0 -1 ------- null}
+ -t 0.645 -s 1 -d 2 -p cbr -e 500 -c 0 -i 39 -a 0 -x {1.0 3.1 29 ------- null}
- -t 0.645 -s 1 -d 2 -p cbr -e 500 -c 0 -i 39 -a 0 -x {1.0 3.1 29 ------- null}
h -t 0.645 -s 1 -d 2 -p cbr -e 500 -c 0 -i 39 -a 0 -x {1.0 3.1 -1 ------- null}
r -t 0.647 -s 1 -d 2 -p cbr -e 500 -c 0 -i 35 -a 0 -x {1.0 3.1 27 ------- null}
+ -t 0.647 -s 2 -d 3 -p cbr -e 500 -c 0 -i 35 -a 0 -x {1.0 3.1 27 ------- null}
r -t 0.648418823529411 -s 0 -d 2 -p tcp -e 1040 -c 0 -i 34 -a 0 -x {0.0 3.0 4 ------- null}
+ -t 0.648418823529411 -s 2 -d 3 -p tcp -e 1040 -c 0 -i 34 -a 0 -x {0.0 3.0 4 ------- null}
- -t 0.64924705882353 -s 2 -d 3 -p cbr -e 500 -c 0 -i 35 -a 0 -x {1.0 3.1 27 ------- null}
h -t 0.64924705882353 -s 2 -d 3 -p cbr -e 500 -c 0 -i 35 -a 0 -x {1.0 3.1 -1 ------- null}
r -t 0.649352941176471 -s 2 -d 3 -p cbr -e 500 -c 0 -i 29 -a 0 -x {1.0 3.1 23 ------- null}
+ -t 0.65 -s 1 -d 2 -p cbr -e 500 -c 0 -i 40 -a 0 -x {1.0 3.1 30 ------- null}
- -t 0.65 -s 1 -d 2 -p cbr -e 500 -c 0 -i 40 -a 0 -x {1.0 3.1 30 ------- null}
h -t 0.65 -s 1 -d 2 -p cbr -e 500 -c 0 -i 40 -a 0 -x {1.0 3.1 -1 ------- null}
- -t 0.6516 -s 2 -d 3 -p tcp -e 1040 -c 0 -i 34 -a 0 -x {0.0 3.0 4 ------- null}
h -t 0.6516 -s 2 -d 3 -p tcp -e 1040 -c 0 -i 34 -a 0 -x {0.0 3.0 -1 ------- null}
r -t 0.652 -s 1 -d 2 -p cbr -e 500 -c 0 -i 38 -a 0 -x {1.0 3.1 28 ------- null}
+ -t 0.652 -s 2 -d 3 -p cbr -e 500 -c 0 -i 38 -a 0 -x {1.0 3.1 28 ------- null}
r -t 0.652578823529412 -s 0 -d 2 -p tcp -e 1040 -c 0 -i 36 -a 0 -x {0.0 3.0 5 ------- null}
+ -t 0.652578823529412 -s 2 -d 3 -p tcp -e 1040 -c 0 -i 36 -a 0 -x {0.0 3.0 5 ------- null}
r -t 0.654352941176471 -s 2 -d 3 -p cbr -e 500 -c 0 -i 30 -a 0 -x {1.0 3.1 24 ------- null}
+ -t 0.655 -s 1 -d 2 -p cbr -e 500 -c 0 -i 41 -a 0 -x {1.0 3.1 31 ------- null}
- -t 0.655 -s 1 -d 2 -p cbr -e 500 -c 0 -i 41 -a 0 -x {1.0 3.1 31 ------- null}
h -t 0.655 -s 1 -d 2 -p cbr -e 500 -c 0 -i 41 -a 0 -x {1.0 3.1 -1 ------- null}
- -t 0.656494117647059 -s 2 -d 3 -p cbr -e 500 -c 0 -i 38 -a 0 -x {1.0 3.1 28 ------- null}
h -t 0.656494117647059 -s 2 -d 3 -p cbr -e 500 -c 0 -i 38 -a 0 -x {1.0 3.1 -1 ------- null}
r -t 0.656738823529412 -s 0 -d 2 -p tcp -e 1040 -c 0 -i 37 -a 0 -x {0.0 3.0 6 ------- null}
+ -t 0.656738823529412 -s 2 -d 3 -p tcp -e 1040 -c 0 -i 37 -a 0 -x {0.0 3.0 6 ------- null}
r -t 0.657 -s 1 -d 2 -p cbr -e 500 -c 0 -i 39 -a 0 -x {1.0 3.1 29 ------- null}
+ -t 0.657 -s 2 -d 3 -p cbr -e 500 -c 0 -i 39 -a 0 -x {1.0 3.1 29 ------- null}
- -t 0.658847058823529 -s 2 -d 3 -p tcp -e 1040 -c 0 -i 36 -a 0 -x {0.0 3.0 5 ------- null}
h -t 0.658847058823529 -s 2 -d 3 -p tcp -e 1040 -c 0 -i 36 -a 0 -x {0.0 3.0 -1 ------- null}
r -t 0.659352941176471 -s 2 -d 3 -p cbr -e 500 -c 0 -i 31 -a 0 -x {1.0 3.1 25 ------- null}
+ -t 0.66 -s 1 -d 2 -p cbr -e 500 -c 0 -i 42 -a 0 -x {1.0 3.1 32 ------- null}
- -t 0.66 -s 1 -d 2 -p cbr -e 500 -c 0 -i 42 -a 0 -x {1.0 3.1 32 ------- null}
h -t 0.66 -s 1 -d 2 -p cbr -e 500 -c 0 -i 42 -a 0 -x {1.0 3.1 -1 ------- null}
r -t 0.662 -s 1 -d 2 -p cbr -e 500 -c 0 -i 40 -a 0 -x {1.0 3.1 30 ------- null}
+ -t 0.662 -s 2 -d 3 -p cbr -e 500 -c 0 -i 40 -a 0 -x {1.0 3.1 30 ------- null}
- -t 0.663741176470588 -s 2 -d 3 -p tcp -e 1040 -c 0 -i 37 -a 0 -x {0.0 3.0 6 ------- null}
h -t 0.663741176470588 -s 2 -d 3 -p tcp -e 1040 -c 0 -i 37 -a 0 -x {0.0 3.0 -1 ------- null}
r -t 0.664352941176471 -s 2 -d 3 -p cbr -e 500 -c 0 -i 32 -a 0 -x {1.0 3.1 26 ------- null}
+ -t 0.665 -s 1 -d 2 -p cbr -e 500 -c 0 -i 43 -a 0 -x {1.0 3.1 33 ------- null}
- -t 0.665 -s 1 -d 2 -p cbr -e 500 -c 0 -i 43 -a 0 -x {1.0 3.1 33 ------- null}
h -t 0.665 -s 1 -d 2 -p cbr -e 500 -c 0 -i 43 -a 0 -x {1.0 3.1 -1 ------- null}
r -t 0.667 -s 1 -d 2 -p cbr -e 500 -c 0 -i 41 -a 0 -x {1.0 3.1 31 ------- null}
+ -t 0.667 -s 2 -d 3 -p cbr -e 500 -c 0 -i 41 -a 0 -x {1.0 3.1 31 ------- null}
- -t 0.668635294117647 -s 2 -d 3 -p cbr -e 500 -c 0 -i 39 -a 0 -x {1.0 3.1 29 ------- null}
h -t 0.668635294117647 -s 2 -d 3 -p cbr -e 500 -c 0 -i 39 -a 0 -x {1.0 3.1 -1 ------- null}
r -t 0.66924705882353 -s 2 -d 3 -p tcp -e 1040 -c 0 -i 33 -a 0 -x {0.0 3.0 3 ------- null}
+ -t 0.66924705882353 -s 3 -d 2 -p ack -e 40 -c 0 -i 44 -a 0 -x {3.0 0.0 3 ------- null}
- -t 0.66924705882353 -s 3 -d 2 -p ack -e 40 -c 0 -i 44 -a 0 -x {3.0 0.0 3 ------- null}
h -t 0.66924705882353 -s 3 -d 2 -p ack -e 40 -c 0 -i 44 -a 0 -x {3.0 0.0 -1 ------- null}
+ -t 0.67 -s 1 -d 2 -p cbr -e 500 -c 0 -i 45 -a 0 -x {1.0 3.1 34 ------- null}
- -t 0.67 -s 1 -d 2 -p cbr -e 500 -c 0 -i 45 -a 0 -x {1.0 3.1 34 ------- null}
h -t 0.67 -s 1 -d 2 -p cbr -e 500 -c 0 -i 45 -a 0 -x {1.0 3.1 -1 ------- null}
- -t 0.670988235294118 -s 2 -d 3 -p cbr -e 500 -c 0 -i 40 -a 0 -x {1.0 3.1 30 ------- null}
h -t 0.670988235294118 -s 2 -d 3 -p cbr -e 500 -c 0 -i 40 -a 0 -x {1.0 3.1 -1 ------- null}
r -t 0.6716 -s 2 -d 3 -p cbr -e 500 -c 0 -i 35 -a 0 -x {1.0 3.1 27 ------- null}
r -t 0.672 -s 1 -d 2 -p cbr -e 500 -c 0 -i 42 -a 0 -x {1.0 3.1 32 ------- null}
+ -t 0.672 -s 2 -d 3 -p cbr -e 500 -c 0 -i 42 -a 0 -x {1.0 3.1 32 ------- null}
- -t 0.673341176470588 -s 2 -d 3 -p cbr -e 500 -c 0 -i 41 -a 0 -x {1.0 3.1 31 ------- null}
h -t 0.673341176470588 -s 2 -d 3 -p cbr -e 500 -c 0 -i 41 -a 0 -x {1.0 3.1 -1 ------- null}
+ -t 0.675 -s 1 -d 2 -p cbr -e 500 -c 0 -i 46 -a 0 -x {1.0 3.1 35 ------- null}
- -t 0.675 -s 1 -d 2 -p cbr -e 500 -c 0 -i 46 -a 0 -x {1.0 3.1 35 ------- null}
h -t 0.675 -s 1 -d 2 -p cbr -e 500 -c 0 -i 46 -a 0 -x {1.0 3.1 -1 ------- null}
- -t 0.675694117647059 -s 2 -d 3 -p cbr -e 500 -c 0 -i 42 -a 0 -x {1.0 3.1 32 ------- null}
h -t 0.675694117647059 -s 2 -d 3 -p cbr -e 500 -c 0 -i 42 -a 0 -x {1.0 3.1 -1 ------- null}
r -t 0.676494117647059 -s 2 -d 3 -p tcp -e 1040 -c 0 -i 34 -a 0 -x {0.0 3.0 4 ------- null}
+ -t 0.676494117647059 -s 3 -d 2 -p ack -e 40 -c 0 -i 47 -a 0 -x {3.0 0.0 4 ------- null}
- -t 0.676494117647059 -s 3 -d 2 -p ack -e 40 -c 0 -i 47 -a 0 -x {3.0 0.0 4 ------- null}
h -t 0.676494117647059 -s 3 -d 2 -p ack -e 40 -c 0 -i 47 -a 0 -x {3.0 0.0 -1 ------- null}
r -t 0.677 -s 1 -d 2 -p cbr -e 500 -c 0 -i 43 -a 0 -x {1.0 3.1 33 ------- null}
+ -t 0.677 -s 2 -d 3 -p cbr -e 500 -c 0 -i 43 -a 0 -x {1.0 3.1 33 ------- null}