+ 0.5 0 2 tcp 40 ------- 0 0.0 3.0 0 0
- 0.5 0 2 tcp 40 ------- 0 0.0 3.0 0 0
+ 0.5 1 2 cbr 500 ------- 0 1.0 3.1 0 1
- 0.5 1 2 cbr 500 ------- 0 1.0 3.1 0 1
+ 0.505 1 2 cbr 500 ------- 0 1.0 3.1 1 2
- 0.505 1 2 cbr 500 ------- 0 1.0 3.1 1 2
+ 0.51 1 2 cbr 500 ------- 0 1.0 3.1 2 3
- 0.51 1 2 cbr 500 ------- 0 1.0 3.1 2 3
r 0.51016 0 2 tcp 40 ------- 0 0.0 3.0 0 0
+ 0.51016 2 3 tcp 40 ------- 0 0.0 3.0 0 0
- 0.51016 2 3 tcp 40 ------- 0 0.0 3.0 0 0
r 0.512 1 2 cbr 500 ------- 0 1.0 3.1 0 1
+ 0.512 2 3 cbr 500 ------- 0 1.0 3.1 0 1
- 0.512 2 3 cbr 500 ------- 0 1.0 3.1 0 1
+ 0.515 1 2 cbr 500 ------- 0 1.0 3.1 3 4
- 0.515 1 2 cbr 500 ------- 0 1.0 3.1 3 4
r 0.517 1 2 cbr 500 ------- 0 1.0 3.1 1 2
+ 0.517 2 3 cbr 500 ------- 0 1.0 3.1 1 2
- 0.517 2 3 cbr 500 ------- 0 1.0 3.1 1 2
+ 0.52 1 2 cbr 500 ------- 0 1.0 3.1 4 5
- 0.52 1 2 cbr 500 ------- 0 1.0 3.1 4 5
r 0.522 1 2 cbr 500 ------- 0 1.0 3.1 2 3
+ 0.522 2 3 cbr 500 ------- 0 1.0 3.1 2 3
- 0.522 2 3 cbr 500 ------- 0 1.0 3.1 2 3
+ 0.525 1 2 cbr 500 ------- 0 1.0 3.1 5 6
- 0.525 1 2 cbr 500 ------- 0 1.0 3.1 5 6
r 0.527 1 2 cbr 500 ------- 0 1.0 3.1 3 4
+ 0.527 2 3 cbr 500 ------- 0 1.0 3.1 3 4
- 0.527 2 3 cbr 500 ------- 0 1.0 3.1 3 4
+ 0.53 1 2 cbr 500 ------- 0 1.0 3.1 6 7
- 0.53 1 2 cbr 500 ------- 0 1.0 3.1 6 7
r 0.530348 2 3 tcp 40 ------- 0 0.0 3.0 0 0
+ 0.530348 3 2 ack 40 ------- 0 3.0 0.0 0 8
- 0.530348 3 2 ack 40 ------- 0 3.0 0.0 0 8
r 0.532 1 2 cbr 500 ------- 0 1.0 3.1 4 5
+ 0.532 2 3 cbr 500 ------- 0 1.0 3.1 4 5
- 0.532 2 3 cbr 500 ------- 0 1.0 3.1 4 5
r 0.534353 2 3 cbr 500 ------- 0 1.0 3.1 0 1
+ 0.535 1 2 cbr 500 ------- 0 1.0 3.1 7 9
- 0.535 1 2 cbr 500 ------- 0 1.0 3.1 7 9
r 0.537 1 2 cbr 500 ------- 0 1.0 3.1 5 6
+ 0.537 2 3 cbr 500 ------- 0 1.0 3.1 5 6
- 0.537 2 3 cbr 500 ------- 0 1.0 3.1 5 6
r 0.539353 2 3 cbr 500 ------- 0 1.0 3.1 1 2
+ 0.54 1 2 cbr 500 ------- 0 1.0 3.1 8 10
- 0.54 1 2 cbr 500 ------- 0 1.0 3.1 8 10
r 0.542 1 2 cbr 500 ------- 0 1.0 3.1 6 7
+ 0.542 2 3 cbr 500 ------- 0 1.0 3.1 6 7
- 0.542 2 3 cbr 500 ------- 0 1.0 3.1 6 7
r 0.544353 2 3 cbr 500 ------- 0 1.0 3.1 2 3
+ 0.545 1 2 cbr 500 ------- 0 1.0 3.1 9 11
- 0.545 1 2 cbr 500 ------- 0 1.0 3.1 9 11
r 0.547 1 2 cbr 500 ------- 0 1.0 3.1 7 9
+ 0.547 2 3 cbr 500 ------- 0 1.0 3.1 7 9
- 0.547 2 3 cbr 500 ------- 0 1.0 3.1 7 9
r 0.549353 2 3 cbr 500 ------- 0 1.0 3.1 3 4
+ 0.55 1 2 cbr 500 ------- 0 1.0 3.1 10 12
- 0.55 1 2 cbr 500 ------- 0 1.0 3.1 10 12
r 0.550536 3 2 ack 40 ------- 0 3.0 0.0 0 8
+ 0.550536 2 0 ack 40 ------- 0 3.0 0.0 0 8
- 0.550536 2 0 ack 40 ------- 0 3.0 0.0 0 8
r 0.552 1 2 cbr 500 ------- 0 1.0 3.1 8 10
+ 0.552 2 3 cbr 500 ------- 0 1.0 3.1 8 10
- 0.552 2 3 cbr 500 ------- 0 1.0 3.1 8 10
r 0.554353 2 3 cbr 500 ------- 0 1.0 3.1 4 5
+ 0.555 1 2 cbr 500 ------- 0 1.0 3.1 11 13
- 0.555 1 2 cbr 500 ------- 0 1.0 3.1 11 13
r 0.557 1 2 cbr 500 ------- 0 1.0 3.1 9 11
+ 0.557 2 3 cbr 500 ------- 0 1.0 3.1 9 11
- 0.557 2 3 cbr 500 ------- 0 1.0 3.1 9 11
r 0.559353 2 3 cbr 500 ------- 0 1.0 3.1 5 6
+ 0.56 1 2 cbr 500 ------- 0 1.0 3.1 12 14
- 0.56 1 2 cbr 500 ------- 0 1.0 3.1 12 14
r 0.560696 2 0 ack 40 ------- 0 3.0 0.0 0 8
+ 0.560696 0 2 tcp 1040 ------- 0 0.0 3.0 1 15
- 0.560696 0 2 tcp 1040 ------- 0 0.0 3.0 1 15
+ 0.560696 0 2 tcp 1040 ------- 0 0.0 3.0 2 16
r 0.562 1 2 cbr 500 ------- 0 1.0 3.1 10 12
+ 0.562 2 3 cbr 500 ------- 0 1.0 3.1 10 12
- 0.562 2 3 cbr 500 ------- 0 1.0 3.1 10 12
r 0.564353 2 3 cbr 500 ------- 0 1.0 3.1 6 7
- 0.564856 0 2 tcp 1040 ------- 0 0.0 3.0 2 16
+ 0.565 1 2 cbr 500 ------- 0 1.0 3.1 13 17
- 0.565 1 2 cbr 500 ------- 0 1.0 3.1 13 17
r 0.567 1 2 cbr 500 ------- 0 1.0 3.1 11 13
+ 0.567 2 3 cbr 500 ------- 0 1.0 3.1 11 13
- 0.567 2 3 cbr 500 ------- 0 1.0 3.1 11 13
r 0.569353 2 3 cbr 500 ------- 0 1.0 3.1 7 9
+ 0.57 1 2 cbr 500 ------- 0 1.0 3.1 14 18
- 0.57 1 2 cbr 500 ------- 0 1.0 3.1 14 18
r 0.572 1 2 cbr 500 ------- 0 1.0 3.1 12 14
+ 0.572 2 3 cbr 500 ------- 0 1.0 3.1 12 14
- 0.572 2 3 cbr 500 ------- 0 1.0 3.1 12 14
r 0.574353 2 3 cbr 500 ------- 0 1.0 3.1 8 10
r 0.574856 0 2 tcp 1040 ------- 0 0.0 3.0 1 15
+ 0.574856 2 3 tcp 1040 ------- 0 0.0 3.0 1 15
- 0.574856 2 3 tcp 1040 ------- 0 0.0 3.0 1 15
+ 0.575 1 2 cbr 500 ------- 0 1.0 3.1 15 19
- 0.575 1 2 cbr 500 ------- 0 1.0 3.1 15 19
r 0.577 1 2 cbr 500 ------- 0 1.0 3.1 13 17
+ 0.577 2 3 cbr 500 ------- 0 1.0 3.1 13 17
r 0.579016 0 2 tcp 1040 ------- 0 0.0 3.0 2 16
+ 0.579016 2 3 tcp 1040 ------- 0 0.0 3.0 2 16
r 0.579353 2 3 cbr 500 ------- 0 1.0 3.1 9 11
- 0.579751 2 3 cbr 500 ------- 0 1.0 3.1 13 17
+ 0.58 1 2 cbr 500 ------- 0 1.0 3.1 16 20
- 0.58 1 2 cbr 500 ------- 0 1.0 3.1 16 20
r 0.582 1 2 cbr 500 ------- 0 1.0 3.1 14 18
+ 0.582 2 3 cbr 500 ------- 0 1.0 3.1 14 18
- 0.582104 2 3 tcp 1040 ------- 0 0.0 3.0 2 16
r 0.584353 2 3 cbr 500 ------- 0 1.0 3.1 10 12
+ 0.585 1 2 cbr 500 ------- 0 1.0 3.1 17 21
- 0.585 1 2 cbr 500 ------- 0 1.0 3.1 17 21
- 0.586998 2 3 cbr 500 ------- 0 1.0 3.1 14 18
r 0.587 1 2 cbr 500 ------- 0 1.0 3.1 15 19
+ 0.587 2 3 cbr 500 ------- 0 1.0 3.1 15 19
- 0.589351 2 3 cbr 500 ------- 0 1.0 3.1 15 19
r 0.589353 2 3 cbr 500 ------- 0 1.0 3.1 11 13
+ 0.59 1 2 cbr 500 ------- 0 1.0 3.1 18 22
- 0.59 1 2 cbr 500 ------- 0 1.0 3.1 18 22
r 0.592 1 2 cbr 500 ------- 0 1.0 3.1 16 20
+ 0.592 2 3 cbr 500 ------- 0 1.0 3.1 16 20
- 0.592 2 3 cbr 500 ------- 0 1.0 3.1 16 20
r 0.594353 2 3 cbr 500 ------- 0 1.0 3.1 12 14
+ 0.595 1 2 cbr 500 ------- 0 1.0 3.1 19 23
- 0.595 1 2 cbr 500 ------- 0 1.0 3.1 19 23
r 0.597 1 2 cbr 500 ------- 0 1.0 3.1 17 21
+ 0.597 2 3 cbr 500 ------- 0 1.0 3.1 17 21
- 0.597 2 3 cbr 500 ------- 0 1.0 3.1 17 21
r 0.599751 2 3 tcp 1040 ------- 0 0.0 3.0 1 15
+ 0.599751 3 2 ack 40 ------- 0 3.0 0.0 1 24
- 0.599751 3 2 ack 40 ------- 0 3.0 0.0 1 24
+ 0.6 1 2 cbr 500 ------- 0 1.0 3.1 20 25
- 0.6 1 2 cbr 500 ------- 0 1.0 3.1 20 25
r 0.602 1 2 cbr 500 ------- 0 1.0 3.1 18 22
+ 0.602 2 3 cbr 500 ------- 0 1.0 3.1 18 22
- 0.602 2 3 cbr 500 ------- 0 1.0 3.1 18 22
r 0.602104 2 3 cbr 500 ------- 0 1.0 3.1 13 17
+ 0.605 1 2 cbr 500 ------- 0 1.0 3.1 21 26
- 0.605 1 2 cbr 500 ------- 0 1.0 3.1 21 26
r 0.606998 2 3 tcp 1040 ------- 0 0.0 3.0 2 16
+ 0.606998 3 2 ack 40 ------- 0 3.0 0.0 2 27
- 0.606998 3 2 ack 40 ------- 0 3.0 0.0 2 27
r 0.607 1 2 cbr 500 ------- 0 1.0 3.1 19 23
+ 0.607 2 3 cbr 500 ------- 0 1.0 3.1 19 23
- 0.607 2 3 cbr 500 ------- 0 1.0 3.1 19 23
r 0.609351 2 3 cbr 500 ------- 0 1.0 3.1 14 18
+ 0.61 1 2 cbr 500 ------- 0 1.0 3.1 22 28
- 0.61 1 2 cbr 500 ------- 0 1.0 3.1 22 28
r 0.611704 2 3 cbr 500 ------- 0 1.0 3.1 15 19
r 0.612 1 2 cbr 500 ------- 0 1.0 3.1 20 25
+ 0.612 2 3 cbr 500 ------- 0 1.0 3.1 20 25
- 0.612 2 3 cbr 500 ------- 0 1.0 3.1 20 25
r 0.614353 2 3 cbr 500 ------- 0 1.0 3.1 16 20
+ 0.615 1 2 cbr 500 ------- 0 1.0 3.1 23 29
- 0.615 1 2 cbr 500 ------- 0 1.0 3.1 23 29
r 0.617 1 2 cbr 500 ------- 0 1.0 3.1 21 26
+ 0.617 2 3 cbr 500 ------- 0 1.0 3.1 21 26
- 0.617 2 3 cbr 500 ------- 0 1.0 3.1 21 26
r 0.619353 2 3 cbr 500 ------- 0 1.0 3.1 17 21
r 0.619939 3 2 ack 40 ------- 0 3.0 0.0 1 24
+ 0.619939 2 0 ack 40 ------- 0 3.0 0.0 1 24
- 0.619939 2 0 ack 40 ------- 0 3.0 0.0 1 24
+ 0.62 1 2 cbr 500 ------- 0 1.0 3.1 24 30
- 0.62 1 2 cbr 500 ------- 0 1.0 3.1 24 30
r 0.622 1 2 cbr 500 ------- 0 1.0 3.1 22 28
+ 0.622 2 3 cbr 500 ------- 0 1.0 3.1 22 28
- 0.622 2 3 cbr 500 ------- 0 1.0 3.1 22 28
r 0.624353 2 3 cbr 500 ------- 0 1.0 3.1 18 22
+ 0.625 1 2 cbr 500 ------- 0 1.0 3.1 25 31
- 0.625 1 2 cbr 500 ------- 0 1.0 3.1 25 31
r 0.627 1 2 cbr 500 ------- 0 1.0 3.1 23 29
+ 0.627 2 3 cbr 500 ------- 0 1.0 3.1 23 29
- 0.627 2 3 cbr 500 ------- 0 1.0 3.1 23 29
r 0.627186 3 2 ack 40 ------- 0 3.0 0.0 2 27
+ 0.627186 2 0 ack 40 ------- 0 3.0 0.0 2 27
- 0.627186 2 0 ack 40 ------- 0 3.0 0.0 2 27
r 0.629353 2 3 cbr 500 ------- 0 1.0 3.1 19 23
+ 0.63 1 2 cbr 500 ------- 0 1.0 3.1 26 32
- 0.63 1 2 cbr 500 ------- 0 1.0 3.1 26 32
r 0.630099 2 0 ack 40 ------- 0 3.0 0.0 1 24
+ 0.630099 0 2 tcp 1040 ------- 0 0.0 3.0 3 33
- 0.630099 0 2 tcp 1040 ------- 0 0.0 3.0 3 33
+ 0.630099 0 2 tcp 1040 ------- 0 0.0 3.0 4 34
r 0.632 1 2 cbr 500 ------- 0 1.0 3.1 24 30
+ 0.632 2 3 cbr 500 ------- 0 1.0 3.1 24 30
- 0.632 2 3 cbr 500 ------- 0 1.0 3.1 24 30
- 0.634259 0 2 tcp 1040 ------- 0 0.0 3.0 4 34
r 0.634353 2 3 cbr 500 ------- 0 1.0 3.1 20 25
+ 0.635 1 2 cbr 500 ------- 0 1.0 3.1 27 35
- 0.635 1 2 cbr 500 ------- 0 1.0 3.1 27 35
r 0.637 1 2 cbr 500 ------- 0 1.0 3.1 25 31
+ 0.637 2 3 cbr 500 ------- 0 1.0 3.1 25 31
- 0.637 2 3 cbr 500 ------- 0 1.0 3.1 25 31
r 0.637346 2 0 ack 40 ------- 0 3.0 0.0 2 27
+ 0.637346 0 2 tcp 1040 ------- 0 0.0 3.0 5 36
+ 0.637346 0 2 tcp 1040 ------- 0 0.0 3.0 6 37
- 0.638419 0 2 tcp 1040 ------- 0 0.0 3.0 5 36
r 0.639353 2 3 cbr 500 ------- 0 1.0 3.1 21 26
+ 0.64 1 2 cbr 500 ------- 0 1.0 3.1 28 38
- 0.64 1 2 cbr 500 ------- 0 1.0 3.1 28 38
r 0.642 1 2 cbr 500 ------- 0 1.0 3.1 26 32
+ 0.642 2 3 cbr 500 ------- 0 1.0 3.1 26 32
- 0.642 2 3 cbr 500 ------- 0 1.0 3.1 26 32
- 0.642579 0 2 tcp 1040 ------- 0 0.0 3.0 6 37
r 0.644259 0 2 tcp 1040 ------- 0 0.0 3.0 3 33
+ 0.644259 2 3 tcp 1040 ------- 0 0.0 3.0 3 33
r 0.644353 2 3 cbr 500 ------- 0 1.0 3.1 22 28
- 0.644353 2 3 tcp 1040 ------- 0 0.0 3.0 3 33
+ 0.645 1 2 cbr 500 ------- 0 1.0 3.1 29 39
- 0.645 1 2 cbr 500 ------- 0 1.0 3.1 29 39
r 0.647 1 2 cbr 500 ------- 0 1.0 3.1 27 35
+ 0.647 2 3 cbr 500 ------- 0 1.0 3.1 27 35
r 0.648419 0 2 tcp 1040 ------- 0 0.0 3.0 4 34
+ 0.648419 2 3 tcp 1040 ------- 0 0.0 3.0 4 34
- 0.649247 2 3 cbr 500 ------- 0 1.0 3.1 27 35
r 0.649353 2 3 cbr 500 ------- 0 1.0 3.1 23 29
+ 0.65 1 2 cbr 500 ------- 0 1.0 3.1 30 40
- 0.65 1 2 cbr 500 ------- 0 1.0 3.1 30 40
- 0.6516 2 3 tcp 1040 ------- 0 0.0 3.0 4 34
r 0.652 1 2 cbr 500 ------- 0 1.0 3.1 28 38
+ 0.652 2 3 cbr 500 ------- 0 1.0 3.1 28 38
r 0.652579 0 2 tcp 1040 ------- 0 0.0 3.0 5 36
+ 0.652579 2 3 tcp 1040 ------- 0 0.0 3.0 5 36
r 0.654353 2 3 cbr 500 ------- 0 1.0 3.1 24 30
+ 0.655 1 2 cbr 500 ------- 0 1.0 3.1 31 41
- 0.655 1 2 cbr 500 ------- 0 1.0 3.1 31 41
- 0.656494 2 3 cbr 500 ------- 0 1.0 3.1 28 38
r 0.656739 0 2 tcp 1040 ------- 0 0.0 3.0 6 37
+ 0.656739 2 3 tcp 1040 ------- 0 0.0 3.0 6 37
r 0.657 1 2 cbr 500 ------- 0 1.0 3.1 29 39
+ 0.657 2 3 cbr 500 ------- 0 1.0 3.1 29 39
- 0.658847 2 3 tcp 1040 ------- 0 0.0 3.0 5 36
r 0.659353 2 3 cbr 500 ------- 0 1.0 3.1 25 31
+ 0.66 1 2 cbr 500 ------- 0 1.0 3.1 32 42
- 0.66 1 2 cbr 500 ------- 0 1.0 3.1 32 42
r 0.662 1 2 cbr 500 ------- 0 1.0 3.1 30 40
+ 0.662 2 3 cbr 500 ------- 0 1.0 3.1 30 40
- 0.663741 2 3 tcp 1040 ------- 0 0.0 3.0 6 37
r 0.664353 2 3 cbr 500 ------- 0 1.0 3.1 26 32
+ 0.665 1 2 cbr 500 ------- 0 1.0 3.1 33 43
- 0.665 1 2 cbr 500 ------- 0 1.0 3.1 33 43
r 0.667 1 2 cbr 500 ------- 0 1.0 3.1 31 41
+ 0.667 2 3 cbr 500 ------- 0 1.0 3.1 31 41
- 0.668635 2 3 cbr 500 ------- 0 1.0 3.1 29 39
r 0.669247 2 3 tcp 1040 ------- 0 0.0 3.0 3 33
+ 0.669247 3 2 ack 40 ------- 0 3.0 0.0 3 44
- 0.669247 3 2 ack 40 ------- 0 3.0 0.0 3 44
+ 0.67 1 2 cbr 500 ------- 0 1.0 3.1 34 45
- 0.67 1 2 cbr 500 ------- 0 1.0 3.1 34 45
- 0.670988 2 3 cbr 500 ------- 0 1.0 3.1 30 40
r 0.6716 2 3 cbr 500 ------- 0 1.0 3.1 27 35
r 0.672 1 2 cbr 500 ------- 0 1.0 3.1 32 42
+ 0.672 2 3 cbr 500 ------- 0 1.0 3.1 32 42
- 0.673341 2 3 cbr 500 ------- 0 1.0 3.1 31 41
+ 0.675 1 2 cbr 500 ------- 0 1.0 3.1 35 46
- 0.675 1 2 cbr 500 ------- 0 1.0 3.1 35 46
- 0.675694 2 3 cbr 500 ------- 0 1.0 3.1 32 42
r 0.676494 2 3 tcp 1040 ------- 0 0.0 3.0 4 34
+ 0.676494 3 2 ack 40 ------- 0 3.0 0.0 4 47
- 0.676494 3 2 ack 40 ------- 0 3.0 0.0 4 47
r 0.677 1 2 cbr 500 ------- 0 1.0 3.1 33 43
+ 0.677 2 3 cbr 500 ------- 0 1.0 3.1 33 43
- 0.678047 2 3 cbr 500 ------- 0 1.0 3.1 33 43
r 0.678847 2 3 cbr 500 ------- 0 1.0 3.1 28 38
+ 0.68 1 2 cbr 500 ------- 0 1.0 3.1 36 48
- 0.68 1 2 cbr 500 ------- 0 1.0 3.1 36 48
r 0.682 1 2 cbr 500 ------- 0 1.0 3.1 34 45
+ 0.682 2 3 cbr 500 ------- 0 1.0 3.1 34 45
- 0.682 2 3 cbr 500 ------- 0 1.0 3.1 34 45
r 0.683741 2 3 tcp 1040 ------- 0 0.0 3.0 5 36
+ 0.683741 3 2 ack 40 ------- 0 3.0 0.0 5 49
- 0.683741 3 2 ack 40 ------- 0 3.0 0.0 5 49
+ 0.685 1 2 cbr 500 ------- 0 1.0 3.1 37 50
- 0.685 1 2 cbr 500 ------- 0 1.0 3.1 37 50
r 0.687 1 2 cbr 500 ------- 0 1.0 3.1 35 46
+ 0.687 2 3 cbr 500 ------- 0 1.0 3.1 35 46
- 0.687 2 3 cbr 500 ------- 0 1.0 3.1 35 46
r 0.688635 2 3 tcp 1040 ------- 0 0.0 3.0 6 37
+ 0.688635 3 2 ack 40 ------- 0 3.0 0.0 6 51
- 0.688635 3 2 ack 40 ------- 0 3.0 0.0 6 51
r 0.689435 3 2 ack 40 ------- 0 3.0 0.0 3 44
+ 0.689435 2 0 ack 40 ------- 0 3.0 0.0 3 44
- 0.689435 2 0 ack 40 ------- 0 3.0 0.0 3 44
+ 0.69 1 2 cbr 500 ------- 0 1.0 3.1 38 52
- 0.69 1 2 cbr 500 ------- 0 1.0 3.1 38 52
r 0.690988 2 3 cbr 500 ------- 0 1.0 3.1 29 39
r 0.692 1 2 cbr 500 ------- 0 1.0 3.1 36 48
+ 0.692 2 3 cbr 500 ------- 0 1.0 3.1 36 48
- 0.692 2 3 cbr 500 ------- 0 1.0 3.1 36 48
r 0.693341 2 3 cbr 500 ------- 0 1.0 3.1 30 40
+ 0.695 1 2 cbr 500 ------- 0 1.0 3.1 39 53
- 0.695 1 2 cbr 500 ------- 0 1.0 3.1 39 53
r 0.695694 2 3 cbr 500 ------- 0 1.0 3.1 31 41
r 0.696682 3 2 ack 40 ------- 0 3.0 0.0 4 47
+ 0.696682 2 0 ack 40 ------- 0 3.0 0.0 4 47
- 0.696682 2 0 ack 40 ------- 0 3.0 0.0 4 47
r 0.697 1 2 cbr 500 ------- 0 1.0 3.1 37 50
+ 0.697 2 3 cbr 500 ------- 0 1.0 3.1 37 50
- 0.697 2 3 cbr 500 ------- 0 1.0 3.1 37 50
r 0.698047 2 3 cbr 500 ------- 0 1.0 3.1 32 42
r 0.699595 2 0 ack 40 ------- 0 3.0 0.0 3 44
+ 0.699595 0 2 tcp 1040 ------- 0 0.0 3.0 7 54
- 0.699595 0 2 tcp 1040 ------- 0 0.0 3.0 7 54
+ 0.699595 0 2 tcp 1040 ------- 0 0.0 3.0 8 55
+ 0.7 1 2 cbr 500 ------- 0 1.0 3.1 40 56
- 0.7 1 2 cbr 500 ------- 0 1.0 3.1 40 56
r 0.7004 2 3 cbr 500 ------- 0 1.0 3.1 33 43
r 0.702 1 2 cbr 500 ------- 0 1.0 3.1 38 52
+ 0.702 2 3 cbr 500 ------- 0 1.0 3.1 38 52
- 0.702 2 3 cbr 500 ------- 0 1.0 3.1 38 52
- 0.703755 0 2 tcp 1040 ------- 0 0.0 3.0 8 55
r 0.703929 3 2 ack 40 ------- 0 3.0 0.0 5 49
+ 0.703929 2 0 ack 40 ------- 0 3.0 0.0 5 49
- 0.703929 2 0 ack 40 ------- 0 3.0 0.0 5 49
r 0.704353 2 3 cbr 500 ------- 0 1.0 3.1 34 45
+ 0.705 1 2 cbr 500 ------- 0 1.0 3.1 41 57
- 0.705 1 2 cbr 500 ------- 0 1.0 3.1 41 57
r 0.706842 2 0 ack 40 ------- 0 3.0 0.0 4 47
+ 0.706842 0 2 tcp 1040 ------- 0 0.0 3.0 9 58
+ 0.706842 0 2 tcp 1040 ------- 0 0.0 3.0 10 59
r 0.707 1 2 cbr 500 ------- 0 1.0 3.1 39 53
+ 0.707 2 3 cbr 500 ------- 0 1.0 3.1 39 53
- 0.707 2 3 cbr 500 ------- 0 1.0 3.1 39 53
- 0.707915 0 2 tcp 1040 ------- 0 0.0 3.0 9 58
r 0.708824 3 2 ack 40 ------- 0 3.0 0.0 6 51
+ 0.708824 2 0 ack 40 ------- 0 3.0 0.0 6 51
- 0.708824 2 0 ack 40 ------- 0 3.0 0.0 6 51
r 0.709353 2 3 cbr 500 ------- 0 1.0 3.1 35 46
+ 0.71 1 2 cbr 500 ------- 0 1.0 3.1 42 60
- 0.71 1 2 cbr 500 ------- 0 1.0 3.1 42 60
r 0.712 1 2 cbr 500 ------- 0 1.0 3.1 40 56
+ 0.712 2 3 cbr 500 ------- 0 1.0 3.1 40 56
- 0.712 2 3 cbr 500 ------- 0 1.0 3.1 40 56
- 0.712075 0 2 tcp 1040 ------- 0 0.0 3.0 10 59
r 0.713755 0 2 tcp 1040 ------- 0 0.0 3.0 7 54
+ 0.713755 2 3 tcp 1040 ------- 0 0.0 3.0 7 54
r 0.714089 2 0 ack 40 ------- 0 3.0 0.0 5 49
+ 0.714089 0 2 tcp 1040 ------- 0 0.0 3.0 11 61
+ 0.714089 0 2 tcp 1040 ------- 0 0.0 3.0 12 62
r 0.714353 2 3 cbr 500 ------- 0 1.0 3.1 36 48
- 0.714353 2 3 tcp 1040 ------- 0 0.0 3.0 7 54
+ 0.715 1 2 cbr 500 ------- 0 1.0 3.1 43 63
- 0.715 1 2 cbr 500 ------- 0 1.0 3.1 43 63
- 0.716235 0 2 tcp 1040 ------- 0 0.0 3.0 11 61
r 0.717 1 2 cbr 500 ------- 0 1.0 3.1 41 57
+ 0.717 2 3 cbr 500 ------- 0 1.0 3.1 41 57
r 0.717915 0 2 tcp 1040 ------- 0 0.0 3.0 8 55
+ 0.717915 2 3 tcp 1040 ------- 0 0.0 3.0 8 55
r 0.718984 2 0 ack 40 ------- 0 3.0 0.0 6 51
+ 0.718984 0 2 tcp 1040 ------- 0 0.0 3.0 13 64
+ 0.718984 0 2 tcp 1040 ------- 0 0.0 3.0 14 65
- 0.719247 2 3 cbr 500 ------- 0 1.0 3.1 41 57
r 0.719353 2 3 cbr 500 ------- 0 1.0 3.1 37 50
+ 0.72 1 2 cbr 500 ------- 0 1.0 3.1 44 66
- 0.72 1 2 cbr 500 ------- 0 1.0 3.1 44 66
- 0.720395 0 2 tcp 1040 ------- 0 0.0 3.0 12 62
- 0.7216 2 3 tcp 1040 ------- 0 0.0 3.0 8 55
r 0.722 1 2 cbr 500 ------- 0 1.0 3.1 42 60
+ 0.722 2 3 cbr 500 ------- 0 1.0 3.1 42 60
r 0.722075 0 2 tcp 1040 ------- 0 0.0 3.0 9 58
+ 0.722075 2 3 tcp 1040 ------- 0 0.0 3.0 9 58
r 0.724353 2 3 cbr 500 ------- 0 1.0 3.1 38 52
- 0.724555 0 2 tcp 1040 ------- 0 0.0 3.0 13 64
+ 0.725 1 2 cbr 500 ------- 0 1.0 3.1 45 67
- 0.725 1 2 cbr 500 ------- 0 1.0 3.1 45 67
r 0.726235 0 2 tcp 1040 ------- 0 0.0 3.0 10 59
+ 0.726235 2 3 tcp 1040 ------- 0 0.0 3.0 10 59
- 0.726494 2 3 cbr 500 ------- 0 1.0 3.1 42 60
r 0.727 1 2 cbr 500 ------- 0 1.0 3.1 43 63
+ 0.727 2 3 cbr 500 ------- 0 1.0 3.1 43 63
- 0.728715 0 2 tcp 1040 ------- 0 0.0 3.0 14 65
- 0.728847 2 3 tcp 1040 ------- 0 0.0 3.0 9 58
r 0.729353 2 3 cbr 500 ------- 0 1.0 3.1 39 53
+ 0.73 1 2 cbr 500 ------- 0 1.0 3.1 46 68
- 0.73 1 2 cbr 500 ------- 0 1.0 3.1 46 68
r 0.730395 0 2 tcp 1040 ------- 0 0.0 3.0 11 61
+ 0.730395 2 3 tcp 1040 ------- 0 0.0 3.0 11 61
r 0.732 1 2 cbr 500 ------- 0 1.0 3.1 44 66
+ 0.732 2 3 cbr 500 ------- 0 1.0 3.1 44 66
- 0.733741 2 3 tcp 1040 ------- 0 0.0 3.0 10 59
r 0.734353 2 3 cbr 500 ------- 0 1.0 3.1 40 56
r 0.734555 0 2 tcp 1040 ------- 0 0.0 3.0 12 62
+ 0.734555 2 3 tcp 1040 ------- 0 0.0 3.0 12 62
+ 0.735 1 2 cbr 500 ------- 0 1.0 3.1 47 69
- 0.735 1 2 cbr 500 ------- 0 1.0 3.1 47 69
r 0.737 1 2 cbr 500 ------- 0 1.0 3.1 45 67
+ 0.737 2 3 cbr 500 ------- 0 1.0 3.1 45 67
- 0.738635 2 3 cbr 500 ------- 0 1.0 3.1 43 63
r 0.738715 0 2 tcp 1040 ------- 0 0.0 3.0 13 64
+ 0.738715 2 3 tcp 1040 ------- 0 0.0 3.0 13 64
r 0.739247 2 3 tcp 1040 ------- 0 0.0 3.0 7 54
+ 0.739247 3 2 ack 40 ------- 0 3.0 0.0 7 70
- 0.739247 3 2 ack 40 ------- 0 3.0 0.0 7 70
+ 0.74 1 2 cbr 500 ------- 0 1.0 3.1 48 71
- 0.74 1 2 cbr 500 ------- 0 1.0 3.1 48 71
- 0.740988 2 3 tcp 1040 ------- 0 0.0 3.0 11 61
r 0.7416 2 3 cbr 500 ------- 0 1.0 3.1 41 57
r 0.742 1 2 cbr 500 ------- 0 1.0 3.1 46 68
+ 0.742 2 3 cbr 500 ------- 0 1.0 3.1 46 68
r 0.742875 0 2 tcp 1040 ------- 0 0.0 3.0 14 65
+ 0.742875 2 3 tcp 1040 ------- 0 0.0 3.0 14 65
+ 0.745 1 2 cbr 500 ------- 0 1.0 3.1 49 72
- 0.745 1 2 cbr 500 ------- 0 1.0 3.1 49 72
- 0.745882 2 3 cbr 500 ------- 0 1.0 3.1 44 66
r 0.746494 2 3 tcp 1040 ------- 0 0.0 3.0 8 55
+ 0.746494 3 2 ack 40 ------- 0 3.0 0.0 8 73
- 0.746494 3 2 ack 40 ------- 0 3.0 0.0 8 73
r 0.747 1 2 cbr 500 ------- 0 1.0 3.1 47 69
+ 0.747 2 3 cbr 500 ------- 0 1.0 3.1 47 69
- 0.748235 2 3 tcp 1040 ------- 0 0.0 3.0 12 62
r 0.748847 2 3 cbr 500 ------- 0 1.0 3.1 42 60
+ 0.75 1 2 cbr 500 ------- 0 1.0 3.1 50 74
- 0.75 1 2 cbr 500 ------- 0 1.0 3.1 50 74
r 0.752 1 2 cbr 500 ------- 0 1.0 3.1 48 71
+ 0.752 2 3 cbr 500 ------- 0 1.0 3.1 48 71
- 0.753129 2 3 cbr 500 ------- 0 1.0 3.1 45 67
r 0.753741 2 3 tcp 1040 ------- 0 0.0 3.0 9 58
+ 0.753741 3 2 ack 40 ------- 0 3.0 0.0 9 75
- 0.753741 3 2 ack 40 ------- 0 3.0 0.0 9 75
+ 0.755 1 2 cbr 500 ------- 0 1.0 3.1 51 76
- 0.755 1 2 cbr 500 ------- 0 1.0 3.1 51 76
- 0.755482 2 3 tcp 1040 ------- 0 0.0 3.0 13 64
r 0.757 1 2 cbr 500 ------- 0 1.0 3.1 49 72
+ 0.757 2 3 cbr 500 ------- 0 1.0 3.1 49 72
r 0.758635 2 3 tcp 1040 ------- 0 0.0 3.0 10 59
+ 0.758635 3 2 ack 40 ------- 0 3.0 0.0 10 77
- 0.758635 3 2 ack 40 ------- 0 3.0 0.0 10 77
r 0.759435 3 2 ack 40 ------- 0 3.0 0.0 7 70
+ 0.759435 2 0 ack 40 ------- 0 3.0 0.0 7 70
- 0.759435 2 0 ack 40 ------- 0 3.0 0.0 7 70
+ 0.76 1 2 cbr 500 ------- 0 1.0 3.1 52 78
- 0.76 1 2 cbr 500 ------- 0 1.0 3.1 52 78
- 0.760376 2 3 cbr 500 ------- 0 1.0 3.1 46 68
r 0.760988 2 3 cbr 500 ------- 0 1.0 3.1 43 63
r 0.762 1 2 cbr 500 ------- 0 1.0 3.1 50 74
+ 0.762 2 3 cbr 500 ------- 0 1.0 3.1 50 74
- 0.762729 2 3 tcp 1040 ------- 0 0.0 3.0 14 65
+ 0.765 1 2 cbr 500 ------- 0 1.0 3.1 53 79
- 0.765 1 2 cbr 500 ------- 0 1.0 3.1 53 79
r 0.765882 2 3 tcp 1040 ------- 0 0.0 3.0 11 61
+ 0.765882 3 2 ack 40 ------- 0 3.0 0.0 11 80
- 0.765882 3 2 ack 40 ------- 0 3.0 0.0 11 80
r 0.766682 3 2 ack 40 ------- 0 3.0 0.0 8 73
+ 0.766682 2 0 ack 40 ------- 0 3.0 0.0 8 73
- 0.766682 2 0 ack 40 ------- 0 3.0 0.0 8 73
r 0.767 1 2 cbr 500 ------- 0 1.0 3.1 51 76
+ 0.767 2 3 cbr 500 ------- 0 1.0 3.1 51 76
- 0.767624 2 3 cbr 500 ------- 0 1.0 3.1 47 69
r 0.768235 2 3 cbr 500 ------- 0 1.0 3.1 44 66
r 0.769595 2 0 ack 40 ------- 0 3.0 0.0 7 70
+ 0.769595 0 2 tcp 1040 ------- 0 0.0 3.0 15 81
- 0.769595 0 2 tcp 1040 ------- 0 0.0 3.0 15 81
+ 0.769595 0 2 tcp 1040 ------- 0 0.0 3.0 16 82
- 0.769976 2 3 cbr 500 ------- 0 1.0 3.1 48 71
+ 0.77 1 2 cbr 500 ------- 0 1.0 3.1 54 83
- 0.77 1 2 cbr 500 ------- 0 1.0 3.1 54 83
r 0.772 1 2 cbr 500 ------- 0 1.0 3.1 52 78
+ 0.772 2 3 cbr 500 ------- 0 1.0 3.1 52 78
- 0.772329 2 3 cbr 500 ------- 0 1.0 3.1 49 72
r 0.773129 2 3 tcp 1040 ------- 0 0.0 3.0 12 62
+ 0.773129 3 2 ack 40 ------- 0 3.0 0.0 12 84
- 0.773129 3 2 ack 40 ------- 0 3.0 0.0 12 84
- 0.773755 0 2 tcp 1040 ------- 0 0.0 3.0 16 82
r 0.773929 3 2 ack 40 ------- 0 3.0 0.0 9 75
+ 0.773929 2 0 ack 40 ------- 0 3.0 0.0 9 75
- 0.773929 2 0 ack 40 ------- 0 3.0 0.0 9 75
- 0.774682 2 3 cbr 500 ------- 0 1.0 3.1 50 74
+ 0.775 1 2 cbr 500 ------- 0 1.0 3.1 55 85
- 0.775 1 2 cbr 500 ------- 0 1.0 3.1 55 85
r 0.775482 2 3 cbr 500 ------- 0 1.0 3.1 45 67
r 0.776842 2 0 ack 40 ------- 0 3.0 0.0 8 73
+ 0.776842 0 2 tcp 1040 ------- 0 0.0 3.0 17 86
+ 0.776842 0 2 tcp 1040 ------- 0 0.0 3.0 18 87
r 0.777 1 2 cbr 500 ------- 0 1.0 3.1 53 79
+ 0.777 2 3 cbr 500 ------- 0 1.0 3.1 53 79
- 0.777035 2 3 cbr 500 ------- 0 1.0 3.1 51 76
- 0.777915 0 2 tcp 1040 ------- 0 0.0 3.0 17 86
r 0.778824 3 2 ack 40 ------- 0 3.0 0.0 10 77
+ 0.778824 2 0 ack 40 ------- 0 3.0 0.0 10 77
- 0.778824 2 0 ack 40 ------- 0 3.0 0.0 10 77
- 0.779388 2 3 cbr 500 ------- 0 1.0 3.1 52 78
+ 0.78 1 2 cbr 500 ------- 0 1.0 3.1 56 88
- 0.78 1 2 cbr 500 ------- 0 1.0 3.1 56 88
r 0.780376 2 3 tcp 1040 ------- 0 0.0 3.0 13 64
+ 0.780376 3 2 ack 40 ------- 0 3.0 0.0 13 89
- 0.780376 3 2 ack 40 ------- 0 3.0 0.0 13 89
- 0.781741 2 3 cbr 500 ------- 0 1.0 3.1 53 79
r 0.782 1 2 cbr 500 ------- 0 1.0 3.1 54 83
+ 0.782 2 3 cbr 500 ------- 0 1.0 3.1 54 83
- 0.782075 0 2 tcp 1040 ------- 0 0.0 3.0 18 87
r 0.782729 2 3 cbr 500 ------- 0 1.0 3.1 46 68
r 0.783755 0 2 tcp 1040 ------- 0 0.0 3.0 15 81
+ 0.783755 2 3 tcp 1040 ------- 0 0.0 3.0 15 81
r 0.784089 2 0 ack 40 ------- 0 3.0 0.0 9 75
+ 0.784089 0 2 tcp 1040 ------- 0 0.0 3.0 19 90
+ 0.784089 0 2 tcp 1040 ------- 0 0.0 3.0 20 91
- 0.784094 2 3 cbr 500 ------- 0 1.0 3.1 54 83
+ 0.785 1 2 cbr 500 ------- 0 1.0 3.1 57 92
- 0.785 1 2 cbr 500 ------- 0 1.0 3.1 57 92
r 0.786071 3 2 ack 40 ------- 0 3.0 0.0 11 80
+ 0.786071 2 0 ack 40 ------- 0 3.0 0.0 11 80
- 0.786071 2 0 ack 40 ------- 0 3.0 0.0 11 80
- 0.786235 0 2 tcp 1040 ------- 0 0.0 3.0 19 90
- 0.786447 2 3 tcp 1040 ------- 0 0.0 3.0 15 81
r 0.787 1 2 cbr 500 ------- 0 1.0 3.1 55 85
+ 0.787 2 3 cbr 500 ------- 0 1.0 3.1 55 85
r 0.787624 2 3 tcp 1040 ------- 0 0.0 3.0 14 65
+ 0.787624 3 2 ack 40 ------- 0 3.0 0.0 14 93
- 0.787624 3 2 ack 40 ------- 0 3.0 0.0 14 93
r 0.787915 0 2 tcp 1040 ------- 0 0.0 3.0 16 82
+ 0.787915 2 3 tcp 1040 ------- 0 0.0 3.0 16 82
r 0.788984 2 0 ack 40 ------- 0 3.0 0.0 10 77
+ 0.788984 0 2 tcp 1040 ------- 0 0.0 3.0 21 94
+ 0.788984 0 2 tcp 1040 ------- 0 0.0 3.0 22 95
r 0.789976 2 3 cbr 500 ------- 0 1.0 3.1 47 69
+ 0.79 1 2 cbr 500 ------- 0 1.0 3.1 58 96
- 0.79 1 2 cbr 500 ------- 0 1.0 3.1 58 96
- 0.790395 0 2 tcp 1040 ------- 0 0.0 3.0 20 91
- 0.791341 2 3 cbr 500 ------- 0 1.0 3.1 55 85
r 0.792 1 2 cbr 500 ------- 0 1.0 3.1 56 88
+ 0.792 2 3 cbr 500 ------- 0 1.0 3.1 56 88
r 0.792075 0 2 tcp 1040 ------- 0 0.0 3.0 17 86
+ 0.792075 2 3 tcp 1040 ------- 0 0.0 3.0 17 86
r 0.792329 2 3 cbr 500 ------- 0 1.0 3.1 48 71
r 0.793318 3 2 ack 40 ------- 0 3.0 0.0 12 84
+ 0.793318 2 0 ack 40 ------- 0 3.0 0.0 12 84
- 0.793318 2 0 ack 40 ------- 0 3.0 0.0 12 84
- 0.793694 2 3 tcp 1040 ------- 0 0.0 3.0 16 82
- 0.794555 0 2 tcp 1040 ------- 0 0.0 3.0 21 94
r 0.794682 2 3 cbr 500 ------- 0 1.0 3.1 49 72
+ 0.795 1 2 cbr 500 ------- 0 1.0 3.1 59 97
- 0.795 1 2 cbr 500 ------- 0 1.0 3.1 59 97
r 0.796231 2 0 ack 40 ------- 0 3.0 0.0 11 80
+ 0.796231 0 2 tcp 1040 ------- 0 0.0 3.0 23 98
+ 0.796231 0 2 tcp 1040 ------- 0 0.0 3.0 24 99
r 0.796235 0 2 tcp 1040 ------- 0 0.0 3.0 18 87
+ 0.796235 2 3 tcp 1040 ------- 0 0.0 3.0 18 87
r 0.797 1 2 cbr 500 ------- 0 1.0 3.1 57 92
+ 0.797 2 3 cbr 500 ------- 0 1.0 3.1 57 92
r 0.797035 2 3 cbr 500 ------- 0 1.0 3.1 50 74
- 0.798588 2 3 cbr 500 ------- 0 1.0 3.1 56 88
- 0.798715 0 2 tcp 1040 ------- 0 0.0 3.0 22 95
r 0.799388 2 3 cbr 500 ------- 0 1.0 3.1 51 76
+ 0.8 1 2 cbr 500 ------- 0 1.0 3.1 60 100
- 0.8 1 2 cbr 500 ------- 0 1.0 3.1 60 100
r 0.800395 0 2 tcp 1040 ------- 0 0.0 3.0 19 90
+ 0.800395 2 3 tcp 1040 ------- 0 0.0 3.0 19 90
r 0.800565 3 2 ack 40 ------- 0 3.0 0.0 13 89
+ 0.800565 2 0 ack 40 ------- 0 3.0 0.0 13 89
- 0.800565 2 0 ack 40 ------- 0 3.0 0.0 13 89
- 0.800941 2 3 tcp 1040 ------- 0 0.0 3.0 17 86
r 0.801741 2 3 cbr 500 ------- 0 1.0 3.1 52 78
r 0.802 1 2 cbr 500 ------- 0 1.0 3.1 58 96
+ 0.802 2 3 cbr 500 ------- 0 1.0 3.1 58 96
- 0.802875 0 2 tcp 1040 ------- 0 0.0 3.0 23 98
r 0.803478 2 0 ack 40 ------- 0 3.0 0.0 12 84
+ 0.803478 0 2 tcp 1040 ------- 0 0.0 3.0 25 101
+ 0.803478 0 2 tcp 1040 ------- 0 0.0 3.0 26 102
r 0.804094 2 3 cbr 500 ------- 0 1.0 3.1 53 79
r 0.804555 0 2 tcp 1040 ------- 0 0.0 3.0 20 91
+ 0.804555 2 3 tcp 1040 ------- 0 0.0 3.0 20 91
+ 0.805 1 2 cbr 500 ------- 0 1.0 3.1 61 103
- 0.805 1 2 cbr 500 ------- 0 1.0 3.1 61 103
- 0.805835 2 3 tcp 1040 ------- 0 0.0 3.0 18 87
r 0.806447 2 3 cbr 500 ------- 0 1.0 3.1 54 83
r 0.807 1 2 cbr 500 ------- 0 1.0 3.1 59 97
+ 0.807 2 3 cbr 500 ------- 0 1.0 3.1 59 97
- 0.807035 0 2 tcp 1040 ------- 0 0.0 3.0 24 99
r 0.807812 3 2 ack 40 ------- 0 3.0 0.0 14 93
+ 0.807812 2 0 ack 40 ------- 0 3.0 0.0 14 93
- 0.807812 2 0 ack 40 ------- 0 3.0 0.0 14 93
r 0.808715 0 2 tcp 1040 ------- 0 0.0 3.0 21 94
+ 0.808715 2 3 tcp 1040 ------- 0 0.0 3.0 21 94
+ 0.81 1 2 cbr 500 ------- 0 1.0 3.1 62 104
- 0.81 1 2 cbr 500 ------- 0 1.0 3.1 62 104
r 0.810725 2 0 ack 40 ------- 0 3.0 0.0 13 89
+ 0.810725 0 2 tcp 1040 ------- 0 0.0 3.0 27 105
+ 0.810725 0 2 tcp 1040 ------- 0 0.0 3.0 28 106
- 0.810729 2 3 cbr 500 ------- 0 1.0 3.1 57 92
- 0.811195 0 2 tcp 1040 ------- 0 0.0 3.0 25 101
r 0.811341 2 3 tcp 1040 ------- 0 0.0 3.0 15 81
+ 0.811341 3 2 ack 40 ------- 0 3.0 0.0 15 107
- 0.811341 3 2 ack 40 ------- 0 3.0 0.0 15 107
r 0.812 1 2 cbr 500 ------- 0 1.0 3.1 60 100
+ 0.812 2 3 cbr 500 ------- 0 1.0 3.1 60 100
r 0.812875 0 2 tcp 1040 ------- 0 0.0 3.0 22 95
+ 0.812875 2 3 tcp 1040 ------- 0 0.0 3.0 22 95
- 0.813082 2 3 tcp 1040 ------- 0 0.0 3.0 19 90
r 0.813694 2 3 cbr 500 ------- 0 1.0 3.1 55 85
+ 0.815 1 2 cbr 500 ------- 0 1.0 3.1 63 108
- 0.815 1 2 cbr 500 ------- 0 1.0 3.1 63 108
- 0.815355 0 2 tcp 1040 ------- 0 0.0 3.0 26 102
r 0.817 1 2 cbr 500 ------- 0 1.0 3.1 61 103
+ 0.817 2 3 cbr 500 ------- 0 1.0 3.1 61 103
r 0.817035 0 2 tcp 1040 ------- 0 0.0 3.0 23 98
+ 0.817035 2 3 tcp 1040 ------- 0 0.0 3.0 23 98
r 0.817972 2 0 ack 40 ------- 0 3.0 0.0 14 93
+ 0.817972 0 2 tcp 1040 ------- 0 0.0 3.0 29 109
+ 0.817972 0 2 tcp 1040 ------- 0 0.0 3.0 30 110
- 0.817976 2 3 cbr 500 ------- 0 1.0 3.1 58 96
r 0.818588 2 3 tcp 1040 ------- 0 0.0 3.0 16 82
+ 0.818588 3 2 ack 40 ------- 0 3.0 0.0 16 111
- 0.818588 3 2 ack 40 ------- 0 3.0 0.0 16 111
- 0.819515 0 2 tcp 1040 ------- 0 0.0 3.0 27 105
+ 0.82 1 2 cbr 500 ------- 0 1.0 3.1 64 112
- 0.82 1 2 cbr 500 ------- 0 1.0 3.1 64 112
- 0.820329 2 3 tcp 1040 ------- 0 0.0 3.0 20 91
r 0.820941 2 3 cbr 500 ------- 0 1.0 3.1 56 88
r 0.821195 0 2 tcp 1040 ------- 0 0.0 3.0 24 99
+ 0.821195 2 3 tcp 1040 ------- 0 0.0 3.0 24 99
r 0.822 1 2 cbr 500 ------- 0 1.0 3.1 62 104
+ 0.822 2 3 cbr 500 ------- 0 1.0 3.1 62 104
- 0.823675 0 2 tcp 1040 ------- 0 0.0 3.0 28 106
+ 0.825 1 2 cbr 500 ------- 0 1.0 3.1 65 113
- 0.825 1 2 cbr 500 ------- 0 1.0 3.1 65 113
- 0.825224 2 3 cbr 500 ------- 0 1.0 3.1 59 97
r 0.825355 0 2 tcp 1040 ------- 0 0.0 3.0 25 101
+ 0.825355 2 3 tcp 1040 ------- 0 0.0 3.0 25 101
r 0.825835 2 3 tcp 1040 ------- 0 0.0 3.0 17 86
+ 0.825835 3 2 ack 40 ------- 0 3.0 0.0 17 114
- 0.825835 3 2 ack 40 ------- 0 3.0 0.0 17 114
r 0.827 1 2 cbr 500 ------- 0 1.0 3.1 63 108
+ 0.827 2 3 cbr 500 ------- 0 1.0 3.1 63 108
- 0.827576 2 3 tcp 1040 ------- 0 0.0 3.0 21 94
- 0.827835 0 2 tcp 1040 ------- 0 0.0 3.0 29 109
r 0.829515 0 2 tcp 1040 ------- 0 0.0 3.0 26 102
+ 0.829515 2 3 tcp 1040 ------- 0 0.0 3.0 26 102
+ 0.83 1 2 cbr 500 ------- 0 1.0 3.1 66 115
- 0.83 1 2 cbr 500 ------- 0 1.0 3.1 66 115
r 0.830729 2 3 tcp 1040 ------- 0 0.0 3.0 18 87
+ 0.830729 3 2 ack 40 ------- 0 3.0 0.0 18 116
- 0.830729 3 2 ack 40 ------- 0 3.0 0.0 18 116
r 0.831529 3 2 ack 40 ------- 0 3.0 0.0 15 107
+ 0.831529 2 0 ack 40 ------- 0 3.0 0.0 15 107
- 0.831529 2 0 ack 40 ------- 0 3.0 0.0 15 107
- 0.831995 0 2 tcp 1040 ------- 0 0.0 3.0 30 110
r 0.832 1 2 cbr 500 ------- 0 1.0 3.1 64 112
+ 0.832 2 3 cbr 500 ------- 0 1.0 3.1 64 112
- 0.832471 2 3 cbr 500 ------- 0 1.0 3.1 60 100
r 0.833082 2 3 cbr 500 ------- 0 1.0 3.1 57 92
r 0.833675 0 2 tcp 1040 ------- 0 0.0 3.0 27 105
+ 0.833675 2 3 tcp 1040 ------- 0 0.0 3.0 27 105
- 0.834824 2 3 tcp 1040 ------- 0 0.0 3.0 22 95
+ 0.835 1 2 cbr 500 ------- 0 1.0 3.1 67 117
- 0.835 1 2 cbr 500 ------- 0 1.0 3.1 67 117
r 0.837 1 2 cbr 500 ------- 0 1.0 3.1 65 113
+ 0.837 2 3 cbr 500 ------- 0 1.0 3.1 65 113
r 0.837835 0 2 tcp 1040 ------- 0 0.0 3.0 28 106
+ 0.837835 2 3 tcp 1040 ------- 0 0.0 3.0 28 106
r 0.837976 2 3 tcp 1040 ------- 0 0.0 3.0 19 90
+ 0.837976 3 2 ack 40 ------- 0 3.0 0.0 19 118
- 0.837976 3 2 ack 40 ------- 0 3.0 0.0 19 118
r 0.838776 3 2 ack 40 ------- 0 3.0 0.0 16 111
+ 0.838776 2 0 ack 40 ------- 0 3.0 0.0 16 111
- 0.838776 2 0 ack 40 ------- 0 3.0 0.0 16 111
- 0.839718 2 3 cbr 500 ------- 0 1.0 3.1 61 103
+ 0.84 1 2 cbr 500 ------- 0 1.0 3.1 68 119
- 0.84 1 2 cbr 500 ------- 0 1.0 3.1 68 119
r 0.840329 2 3 cbr 500 ------- 0 1.0 3.1 58 96
r 0.841689 2 0 ack 40 ------- 0 3.0 0.0 15 107
+ 0.841689 0 2 tcp 1040 ------- 0 0.0 3.0 31 120